+ 0.1 1 2 tcp 40 ------- 0 1.0 3.1 0 0
- 0.1 1 2 tcp 40 ------- 0 1.0 3.1 0 0
r 0.10216 1 2 tcp 40 ------- 0 1.0 3.1 0 0
+ 0.10216 2 3 tcp 40 ------- 0 1.0 3.1 0 0
- 0.10216 2 3 tcp 40 ------- 0 1.0 3.1 0 0
r 0.11296 2 3 tcp 40 ------- 0 1.0 3.1 0 0
+ 0.11296 3 2 ack 40 ------- 0 3.1 1.0 0 1
- 0.11296 3 2 ack 40 ------- 0 3.1 1.0 0 1
r 0.12376 3 2 ack 40 ------- 0 3.1 1.0 0 1
+ 0.12376 2 1 ack 40 ------- 0 3.1 1.0 0 1
- 0.12376 2 1 ack 40 ------- 0 3.1 1.0 0 1
r 0.12592 2 1 ack 40 ------- 0 3.1 1.0 0 1
+ 0.12592 1 2 tcp 1040 ------- 0 1.0 3.1 1 2
- 0.12592 1 2 tcp 1040 ------- 0 1.0 3.1 1 2
+ 0.12592 1 2 tcp 1040 ------- 0 1.0 3.1 2 3
- 0.13008 1 2 tcp 1040 ------- 0 1.0 3.1 2 3
r 0.13208 1 2 tcp 1040 ------- 0 1.0 3.1 1 2
+ 0.13208 2 3 tcp 1040 ------- 0 1.0 3.1 1 2
- 0.13208 2 3 tcp 1040 ------- 0 1.0 3.1 1 2
r 0.13624 1 2 tcp 1040 ------- 0 1.0 3.1 2 3
+ 0.13624 2 3 tcp 1040 ------- 0 1.0 3.1 2 3
- 0.15288 2 3 tcp 1040 ------- 0 1.0 3.1 2 3
r 0.16288 2 3 tcp 1040 ------- 0 1.0 3.1 1 2
+ 0.16288 3 2 ack 40 ------- 0 3.1 1.0 1 4
- 0.16288 3 2 ack 40 ------- 0 3.1 1.0 1 4
r 0.17368 3 2 ack 40 ------- 0 3.1 1.0 1 4
+ 0.17368 2 1 ack 40 ------- 0 3.1 1.0 1 4
- 0.17368 2 1 ack 40 ------- 0 3.1 1.0 1 4
r 0.17584 2 1 ack 40 ------- 0 3.1 1.0 1 4
+ 0.17584 1 2 tcp 1040 ------- 0 1.0 3.1 3 5
- 0.17584 1 2 tcp 1040 ------- 0 1.0 3.1 3 5
+ 0.17584 1 2 tcp 1040 ------- 0 1.0 3.1 4 6
- 0.18 1 2 tcp 1040 ------- 0 1.0 3.1 4 6
r 0.182 1 2 tcp 1040 ------- 0 1.0 3.1 3 5
+ 0.182 2 3 tcp 1040 ------- 0 1.0 3.1 3 5
- 0.182 2 3 tcp 1040 ------- 0 1.0 3.1 3 5
r 0.18368 2 3 tcp 1040 ------- 0 1.0 3.1 2 3
+ 0.18368 3 2 ack 40 ------- 0 3.1 1.0 2 7
- 0.18368 3 2 ack 40 ------- 0 3.1 1.0 2 7
r 0.18616 1 2 tcp 1040 ------- 0 1.0 3.1 4 6
+ 0.18616 2 3 tcp 1040 ------- 0 1.0 3.1 4 6
r 0.19448 3 2 ack 40 ------- 0 3.1 1.0 2 7
+ 0.19448 2 1 ack 40 ------- 0 3.1 1.0 2 7
- 0.19448 2 1 ack 40 ------- 0 3.1 1.0 2 7
r 0.19664 2 1 ack 40 ------- 0 3.1 1.0 2 7
+ 0.19664 1 2 tcp 1040 ------- 0 1.0 3.1 5 8
- 0.19664 1 2 tcp 1040 ------- 0 1.0 3.1 5 8
+ 0.19664 1 2 tcp 1040 ------- 0 1.0 3.1 6 9
- 0.2008 1 2 tcp 1040 ------- 0 1.0 3.1 6 9
- 0.2028 2 3 tcp 1040 ------- 0 1.0 3.1 4 6
r 0.2028 1 2 tcp 1040 ------- 0 1.0 3.1 5 8
+ 0.2028 2 3 tcp 1040 ------- 0 1.0 3.1 5 8
r 0.20696 1 2 tcp 1040 ------- 0 1.0 3.1 6 9
+ 0.20696 2 3 tcp 1040 ------- 0 1.0 3.1 6 9
r 0.2128 2 3 tcp 1040 ------- 0 1.0 3.1 3 5
+ 0.2128 3 2 ack 40 ------- 0 3.1 1.0 3 10
- 0.2128 3 2 ack 40 ------- 0 3.1 1.0 3 10
- 0.2236 2 3 tcp 1040 ------- 0 1.0 3.1 5 8
r 0.2236 3 2 ack 40 ------- 0 3.1 1.0 3 10
+ 0.2236 2 1 ack 40 ------- 0 3.1 1.0 3 10
- 0.2236 2 1 ack 40 ------- 0 3.1 1.0 3 10
r 0.22576 2 1 ack 40 ------- 0 3.1 1.0 3 10
+ 0.22576 1 2 tcp 1040 ------- 0 1.0 3.1 7 11
- 0.22576 1 2 tcp 1040 ------- 0 1.0 3.1 7 11
+ 0.22576 1 2 tcp 1040 ------- 0 1.0 3.1 8 12
- 0.22992 1 2 tcp 1040 ------- 0 1.0 3.1 8 12
r 0.23192 1 2 tcp 1040 ------- 0 1.0 3.1 7 11
+ 0.23192 2 3 tcp 1040 ------- 0 1.0 3.1 7 11
r 0.2336 2 3 tcp 1040 ------- 0 1.0 3.1 4 6
+ 0.2336 3 2 ack 40 ------- 0 3.1 1.0 4 13
- 0.2336 3 2 ack 40 ------- 0 3.1 1.0 4 13
r 0.23608 1 2 tcp 1040 ------- 0 1.0 3.1 8 12
+ 0.23608 2 3 tcp 1040 ------- 0 1.0 3.1 8 12
- 0.2444 2 3 tcp 1040 ------- 0 1.0 3.1 6 9
r 0.2444 3 2 ack 40 ------- 0 3.1 1.0 4 13
+ 0.2444 2 1 ack 40 ------- 0 3.1 1.0 4 13
- 0.2444 2 1 ack 40 ------- 0 3.1 1.0 4 13
r 0.24656 2 1 ack 40 ------- 0 3.1 1.0 4 13
+ 0.24656 1 2 tcp 1040 ------- 0 1.0 3.1 9 14
- 0.24656 1 2 tcp 1040 ------- 0 1.0 3.1 9 14
+ 0.24656 1 2 tcp 1040 ------- 0 1.0 3.1 10 15
- 0.25072 1 2 tcp 1040 ------- 0 1.0 3.1 10 15
r 0.25272 1 2 tcp 1040 ------- 0 1.0 3.1 9 14
+ 0.25272 2 3 tcp 1040 ------- 0 1.0 3.1 9 14
r 0.2544 2 3 tcp 1040 ------- 0 1.0 3.1 5 8
+ 0.2544 3 2 ack 40 ------- 0 3.1 1.0 5 16
- 0.2544 3 2 ack 40 ------- 0 3.1 1.0 5 16
r 0.25688 1 2 tcp 1040 ------- 0 1.0 3.1 10 15
+ 0.25688 2 3 tcp 1040 ------- 0 1.0 3.1 10 15
- 0.2652 2 3 tcp 1040 ------- 0 1.0 3.1 7 11
r 0.2652 3 2 ack 40 ------- 0 3.1 1.0 5 16
+ 0.2652 2 1 ack 40 ------- 0 3.1 1.0 5 16
- 0.2652 2 1 ack 40 ------- 0 3.1 1.0 5 16
r 0.26736 2 1 ack 40 ------- 0 3.1 1.0 5 16
+ 0.26736 1 2 tcp 1040 ------- 0 1.0 3.1 11 17
- 0.26736 1 2 tcp 1040 ------- 0 1.0 3.1 11 17
+ 0.26736 1 2 tcp 1040 ------- 0 1.0 3.1 12 18
- 0.27152 1 2 tcp 1040 ------- 0 1.0 3.1 12 18
r 0.27352 1 2 tcp 1040 ------- 0 1.0 3.1 11 17
+ 0.27352 2 3 tcp 1040 ------- 0 1.0 3.1 11 17
r 0.2752 2 3 tcp 1040 ------- 0 1.0 3.1 6 9
+ 0.2752 3 2 ack 40 ------- 0 3.1 1.0 6 19
- 0.2752 3 2 ack 40 ------- 0 3.1 1.0 6 19
r 0.27768 1 2 tcp 1040 ------- 0 1.0 3.1 12 18
+ 0.27768 2 3 tcp 1040 ------- 0 1.0 3.1 12 18
d 0.27768 2 3 tcp 1040 ------- 0 1.0 3.1 12 18
- 0.286 2 3 tcp 1040 ------- 0 1.0 3.1 8 12
r 0.286 3 2 ack 40 ------- 0 3.1 1.0 6 19
+ 0.286 2 1 ack 40 ------- 0 3.1 1.0 6 19
- 0.286 2 1 ack 40 ------- 0 3.1 1.0 6 19
r 0.28816 2 1 ack 40 ------- 0 3.1 1.0 6 19
+ 0.28816 1 2 tcp 1040 ------- 0 1.0 3.1 13 20
- 0.28816 1 2 tcp 1040 ------- 0 1.0 3.1 13 20
+ 0.28816 1 2 tcp 1040 ------- 0 1.0 3.1 14 21
- 0.29232 1 2 tcp 1040 ------- 0 1.0 3.1 14 21
r 0.29432 1 2 tcp 1040 ------- 0 1.0 3.1 13 20
+ 0.29432 2 3 tcp 1040 ------- 0 1.0 3.1 13 20
r 0.296 2 3 tcp 1040 ------- 0 1.0 3.1 7 11
+ 0.296 3 2 ack 40 ------- 0 3.1 1.0 7 22
- 0.296 3 2 ack 40 ------- 0 3.1 1.0 7 22
r 0.29848 1 2 tcp 1040 ------- 0 1.0 3.1 14 21
+ 0.29848 2 3 tcp 1040 ------- 0 1.0 3.1 14 21
d 0.29848 2 3 tcp 1040 ------- 0 1.0 3.1 14 21
- 0.3068 2 3 tcp 1040 ------- 0 1.0 3.1 9 14
r 0.3068 3 2 ack 40 ------- 0 3.1 1.0 7 22
+ 0.3068 2 1 ack 40 ------- 0 3.1 1.0 7 22
- 0.3068 2 1 ack 40 ------- 0 3.1 1.0 7 22
r 0.30896 2 1 ack 40 ------- 0 3.1 1.0 7 22
+ 0.30896 1 2 tcp 1040 ------- 0 1.0 3.1 15 23
- 0.30896 1 2 tcp 1040 ------- 0 1.0 3.1 15 23
+ 0.30896 1 2 tcp 1040 ------- 0 1.0 3.1 16 24
- 0.31312 1 2 tcp 1040 ------- 0 1.0 3.1 16 24
r 0.31512 1 2 tcp 1040 ------- 0 1.0 3.1 15 23
+ 0.31512 2 3 tcp 1040 ------- 0 1.0 3.1 15 23
r 0.3168 2 3 tcp 1040 ------- 0 1.0 3.1 8 12
+ 0.3168 3 2 ack 40 ------- 0 3.1 1.0 8 25
- 0.3168 3 2 ack 40 ------- 0 3.1 1.0 8 25
r 0.31928 1 2 tcp 1040 ------- 0 1.0 3.1 16 24
+ 0.31928 2 3 tcp 1040 ------- 0 1.0 3.1 16 24
d 0.31928 2 3 tcp 1040 ------- 0 1.0 3.1 16 24
- 0.3276 2 3 tcp 1040 ------- 0 1.0 3.1 10 15
r 0.3276 3 2 ack 40 ------- 0 3.1 1.0 8 25
+ 0.3276 2 1 ack 40 ------- 0 3.1 1.0 8 25
- 0.3276 2 1 ack 40 ------- 0 3.1 1.0 8 25
r 0.32976 2 1 ack 40 ------- 0 3.1 1.0 8 25
+ 0.32976 1 2 tcp 1040 ------- 0 1.0 3.1 17 26
- 0.32976 1 2 tcp 1040 ------- 0 1.0 3.1 17 26
+ 0.32976 1 2 tcp 1040 ------- 0 1.0 3.1 18 27
- 0.33392 1 2 tcp 1040 ------- 0 1.0 3.1 18 27
r 0.33592 1 2 tcp 1040 ------- 0 1.0 3.1 17 26
+ 0.33592 2 3 tcp 1040 ------- 0 1.0 3.1 17 26
r 0.3376 2 3 tcp 1040 ------- 0 1.0 3.1 9 14
+ 0.3376 3 2 ack 40 ------- 0 3.1 1.0 9 28
- 0.3376 3 2 ack 40 ------- 0 3.1 1.0 9 28
r 0.34008 1 2 tcp 1040 ------- 0 1.0 3.1 18 27
+ 0.34008 2 3 tcp 1040 ------- 0 1.0 3.1 18 27
d 0.34008 2 3 tcp 1040 ------- 0 1.0 3.1 18 27
- 0.3484 2 3 tcp 1040 ------- 0 1.0 3.1 11 17
r 0.3484 3 2 ack 40 ------- 0 3.1 1.0 9 28
+ 0.3484 2 1 ack 40 ------- 0 3.1 1.0 9 28
- 0.3484 2 1 ack 40 ------- 0 3.1 1.0 9 28
r 0.35056 2 1 ack 40 ------- 0 3.1 1.0 9 28
+ 0.35056 1 2 tcp 1040 ------- 0 1.0 3.1 19 29
- 0.35056 1 2 tcp 1040 ------- 0 1.0 3.1 19 29
+ 0.35056 1 2 tcp 1040 ------- 0 1.0 3.1 20 30
- 0.35472 1 2 tcp 1040 ------- 0 1.0 3.1 20 30
r 0.35672 1 2 tcp 1040 ------- 0 1.0 3.1 19 29
+ 0.35672 2 3 tcp 1040 ------- 0 1.0 3.1 19 29
r 0.3584 2 3 tcp 1040 ------- 0 1.0 3.1 10 15
+ 0.3584 3 2 ack 40 ------- 0 3.1 1.0 10 31
- 0.3584 3 2 ack 40 ------- 0 3.1 1.0 10 31
r 0.36088 1 2 tcp 1040 ------- 0 1.0 3.1 20 30
+ 0.36088 2 3 tcp 1040 ------- 0 1.0 3.1 20 30
d 0.36088 2 3 tcp 1040 ------- 0 1.0 3.1 20 30
- 0.3692 2 3 tcp 1040 ------- 0 1.0 3.1 13 20
r 0.3692 3 2 ack 40 ------- 0 3.1 1.0 10 31
+ 0.3692 2 1 ack 40 ------- 0 3.1 1.0 10 31
- 0.3692 2 1 ack 40 ------- 0 3.1 1.0 10 31
r 0.37136 2 1 ack 40 ------- 0 3.1 1.0 10 31
+ 0.37136 1 2 tcp 1040 ------- 0 1.0 3.1 21 32
- 0.37136 1 2 tcp 1040 ------- 0 1.0 3.1 21 32
+ 0.37136 1 2 tcp 1040 ------- 0 1.0 3.1 22 33
- 0.37552 1 2 tcp 1040 ------- 0 1.0 3.1 22 33
r 0.37752 1 2 tcp 1040 ------- 0 1.0 3.1 21 32
+ 0.37752 2 3 tcp 1040 ------- 0 1.0 3.1 21 32
r 0.3792 2 3 tcp 1040 ------- 0 1.0 3.1 11 17
+ 0.3792 3 2 ack 40 ------- 0 3.1 1.0 11 34
- 0.3792 3 2 ack 40 ------- 0 3.1 1.0 11 34
r 0.38168 1 2 tcp 1040 ------- 0 1.0 3.1 22 33
+ 0.38168 2 3 tcp 1040 ------- 0 1.0 3.1 22 33
d 0.38168 2 3 tcp 1040 ------- 0 1.0 3.1 22 33
- 0.39 2 3 tcp 1040 ------- 0 1.0 3.1 15 23
r 0.39 3 2 ack 40 ------- 0 3.1 1.0 11 34
+ 0.39 2 1 ack 40 ------- 0 3.1 1.0 11 34
- 0.39 2 1 ack 40 ------- 0 3.1 1.0 11 34
r 0.39216 2 1 ack 40 ------- 0 3.1 1.0 11 34
+ 0.39216 1 2 tcp 1040 ------- 0 1.0 3.1 23 35
- 0.39216 1 2 tcp 1040 ------- 0 1.0 3.1 23 35
+ 0.39216 1 2 tcp 1040 ------- 0 1.0 3.1 24 36
- 0.39632 1 2 tcp 1040 ------- 0 1.0 3.1 24 36
r 0.39832 1 2 tcp 1040 ------- 0 1.0 3.1 23 35
+ 0.39832 2 3 tcp 1040 ------- 0 1.0 3.1 23 35
r 0.4 2 3 tcp 1040 ------- 0 1.0 3.1 13 20
+ 0.4 3 2 ack 40 ------- 0 3.1 1.0 11 37
- 0.4 3 2 ack 40 ------- 0 3.1 1.0 11 37
r 0.40248 1 2 tcp 1040 ------- 0 1.0 3.1 24 36
+ 0.40248 2 3 tcp 1040 ------- 0 1.0 3.1 24 36
d 0.40248 2 3 tcp 1040 ------- 0 1.0 3.1 24 36
- 0.4108 2 3 tcp 1040 ------- 0 1.0 3.1 17 26
r 0.4108 3 2 ack 40 ------- 0 3.1 1.0 11 37
+ 0.4108 2 1 ack 40 ------- 0 3.1 1.0 11 37
- 0.4108 2 1 ack 40 ------- 0 3.1 1.0 11 37
r 0.41296 2 1 ack 40 ------- 0 3.1 1.0 11 37
+ 0.41296 1 2 tcp 1040 ------- 0 1.0 3.1 25 38
- 0.41296 1 2 tcp 1040 ------- 0 1.0 3.1 25 38
r 0.41912 1 2 tcp 1040 ------- 0 1.0 3.1 25 38
+ 0.41912 2 3 tcp 1040 ------- 0 1.0 3.1 25 38
r 0.4208 2 3 tcp 1040 ------- 0 1.0 3.1 15 23
+ 0.4208 3 2 ack 40 ------- 0 3.1 1.0 11 39
- 0.4208 3 2 ack 40 ------- 0 3.1 1.0 11 39
- 0.4316 2 3 tcp 1040 ------- 0 1.0 3.1 19 29
r 0.4316 3 2 ack 40 ------- 0 3.1 1.0 11 39
+ 0.4316 2 1 ack 40 ------- 0 3.1 1.0 11 39
- 0.4316 2 1 ack 40 ------- 0 3.1 1.0 11 39
r 0.43376 2 1 ack 40 ------- 0 3.1 1.0 11 39
+ 0.43376 1 2 tcp 1040 ------- 0 1.0 3.1 26 40
- 0.43376 1 2 tcp 1040 ------- 0 1.0 3.1 26 40
r 0.43992 1 2 tcp 1040 ------- 0 1.0 3.1 26 40
+ 0.43992 2 3 tcp 1040 ------- 0 1.0 3.1 26 40
r 0.4416 2 3 tcp 1040 ------- 0 1.0 3.1 17 26
+ 0.4416 3 2 ack 40 ------- 0 3.1 1.0 11 41
- 0.4416 3 2 ack 40 ------- 0 3.1 1.0 11 41
- 0.4524 2 3 tcp 1040 ------- 0 1.0 3.1 21 32
r 0.4524 3 2 ack 40 ------- 0 3.1 1.0 11 41
+ 0.4524 2 1 ack 40 ------- 0 3.1 1.0 11 41
- 0.4524 2 1 ack 40 ------- 0 3.1 1.0 11 41
r 0.45456 2 1 ack 40 ------- 0 3.1 1.0 11 41
+ 0.45456 1 2 tcp 1040 ---A--- 0 1.0 3.1 12 42
- 0.45456 1 2 tcp 1040 ---A--- 0 1.0 3.1 12 42
r 0.46072 1 2 tcp 1040 ---A--- 0 1.0 3.1 12 42
+ 0.46072 2 3 tcp 1040 ---A--- 0 1.0 3.1 12 42
r 0.4624 2 3 tcp 1040 ------- 0 1.0 3.1 19 29
+ 0.4624 3 2 ack 40 ------- 0 3.1 1.0 11 43
- 0.4624 3 2 ack 40 ------- 0 3.1 1.0 11 43
- 0.4732 2 3 tcp 1040 ------- 0 1.0 3.1 23 35
r 0.4732 3 2 ack 40 ------- 0 3.1 1.0 11 43
+ 0.4732 2 1 ack 40 ------- 0 3.1 1.0 11 43
- 0.4732 2 1 ack 40 ------- 0 3.1 1.0 11 43
r 0.47536 2 1 ack 40 ------- 0 3.1 1.0 11 43
r 0.4832 2 3 tcp 1040 ------- 0 1.0 3.1 21 32
+ 0.4832 3 2 ack 40 ------- 0 3.1 1.0 11 44
- 0.4832 3 2 ack 40 ------- 0 3.1 1.0 11 44
- 0.494 2 3 tcp 1040 ------- 0 1.0 3.1 25 38
r 0.494 3 2 ack 40 ------- 0 3.1 1.0 11 44
+ 0.494 2 1 ack 40 ------- 0 3.1 1.0 11 44
- 0.494 2 1 ack 40 ------- 0 3.1 1.0 11 44
r 0.49616 2 1 ack 40 ------- 0 3.1 1.0 11 44
r 0.504 2 3 tcp 1040 ------- 0 1.0 3.1 23 35
+ 0.504 3 2 ack 40 ------- 0 3.1 1.0 11 45
- 0.504 3 2 ack 40 ------- 0 3.1 1.0 11 45
- 0.5148 2 3 tcp 1040 ------- 0 1.0 3.1 26 40
r 0.5148 3 2 ack 40 ------- 0 3.1 1.0 11 45
+ 0.5148 2 1 ack 40 ------- 0 3.1 1.0 11 45
- 0.5148 2 1 ack 40 ------- 0 3.1 1.0 11 45
r 0.51696 2 1 ack 40 ------- 0 3.1 1.0 11 45
r 0.5248 2 3 tcp 1040 ------- 0 1.0 3.1 25 38
+ 0.5248 3 2 ack 40 ------- 0 3.1 1.0 11 46
- 0.5248 3 2 ack 40 ------- 0 3.1 1.0 11 46
- 0.5356 2 3 tcp 1040 ---A--- 0 1.0 3.1 12 42
r 0.5356 3 2 ack 40 ------- 0 3.1 1.0 11 46
+ 0.5356 2 1 ack 40 ------- 0 3.1 1.0 11 46
- 0.5356 2 1 ack 40 ------- 0 3.1 1.0 11 46
r 0.53776 2 1 ack 40 ------- 0 3.1 1.0 11 46
r 0.5456 2 3 tcp 1040 ------- 0 1.0 3.1 26 40
+ 0.5456 3 2 ack 40 ------- 0 3.1 1.0 11 47
- 0.5456 3 2 ack 40 ------- 0 3.1 1.0 11 47
r 0.5564 3 2 ack 40 ------- 0 3.1 1.0 11 47
+ 0.5564 2 1 ack 40 ------- 0 3.1 1.0 11 47
- 0.5564 2 1 ack 40 ------- 0 3.1 1.0 11 47
r 0.55856 2 1 ack 40 ------- 0 3.1 1.0 11 47
r 0.5664 2 3 tcp 1040 ---A--- 0 1.0 3.1 12 42
+ 0.5664 3 2 ack 40 ------- 0 3.1 1.0 13 48
- 0.5664 3 2 ack 40 ------- 0 3.1 1.0 13 48
r 0.5772 3 2 ack 40 ------- 0 3.1 1.0 13 48
+ 0.5772 2 1 ack 40 ------- 0 3.1 1.0 13 48
- 0.5772 2 1 ack 40 ------- 0 3.1 1.0 13 48
r 0.57936 2 1 ack 40 ------- 0 3.1 1.0 13 48
+ 0.57936 1 2 tcp 1040 ------- 0 1.0 3.1 14 49
- 0.57936 1 2 tcp 1040 ------- 0 1.0 3.1 14 49
+ 0.57936 1 2 tcp 1040 ------- 0 1.0 3.1 15 50
- 0.58352 1 2 tcp 1040 ------- 0 1.0 3.1 15 50
r 0.58552 1 2 tcp 1040 ------- 0 1.0 3.1 14 49
+ 0.58552 2 3 tcp 1040 ------- 0 1.0 3.1 14 49
- 0.58552 2 3 tcp 1040 ------- 0 1.0 3.1 14 49
r 0.58968 1 2 tcp 1040 ------- 0 1.0 3.1 15 50
+ 0.58968 2 3 tcp 1040 ------- 0 1.0 3.1 15 50
- 0.60632 2 3 tcp 1040 ------- 0 1.0 3.1 15 50
r 0.61632 2 3 tcp 1040 ------- 0 1.0 3.1 14 49
+ 0.61632 3 2 ack 40 ------- 0 3.1 1.0 15 51
- 0.61632 3 2 ack 40 ------- 0 3.1 1.0 15 51
r 0.62712 3 2 ack 40 ------- 0 3.1 1.0 15 51
+ 0.62712 2 1 ack 40 ------- 0 3.1 1.0 15 51
- 0.62712 2 1 ack 40 ------- 0 3.1 1.0 15 51
r 0.62928 2 1 ack 40 ------- 0 3.1 1.0 15 51
+ 0.62928 1 2 tcp 1040 ------- 0 1.0 3.1 16 52
- 0.62928 1 2 tcp 1040 ------- 0 1.0 3.1 16 52
+ 0.62928 1 2 tcp 1040 ------- 0 1.0 3.1 17 53
+ 0.62928 1 2 tcp 1040 ------- 0 1.0 3.1 18 54
- 0.63344 1 2 tcp 1040 ------- 0 1.0 3.1 17 53
r 0.63544 1 2 tcp 1040 ------- 0 1.0 3.1 16 52
+ 0.63544 2 3 tcp 1040 ------- 0 1.0 3.1 16 52
- 0.63544 2 3 tcp 1040 ------- 0 1.0 3.1 16 52
r 0.63712 2 3 tcp 1040 ------- 0 1.0 3.1 15 50
+ 0.63712 3 2 ack 40 ------- 0 3.1 1.0 15 55
- 0.63712 3 2 ack 40 ------- 0 3.1 1.0 15 55
- 0.6376 1 2 tcp 1040 ------- 0 1.0 3.1 18 54
r 0.6396 1 2 tcp 1040 ------- 0 1.0 3.1 17 53
+ 0.6396 2 3 tcp 1040 ------- 0 1.0 3.1 17 53
r 0.64376 1 2 tcp 1040 ------- 0 1.0 3.1 18 54
+ 0.64376 2 3 tcp 1040 ------- 0 1.0 3.1 18 54
r 0.64792 3 2 ack 40 ------- 0 3.1 1.0 15 55
+ 0.64792 2 1 ack 40 ------- 0 3.1 1.0 15 55
- 0.64792 2 1 ack 40 ------- 0 3.1 1.0 15 55
r 0.65008 2 1 ack 40 ------- 0 3.1 1.0 15 55
+ 0.65008 1 2 tcp 1040 ------- 0 1.0 3.1 19 56
- 0.65008 1 2 tcp 1040 ------- 0 1.0 3.1 19 56
- 0.65624 2 3 tcp 1040 ------- 0 1.0 3.1 17 53
r 0.65624 1 2 tcp 1040 ------- 0 1.0 3.1 19 56
+ 0.65624 2 3 tcp 1040 ------- 0 1.0 3.1 19 56
r 0.66624 2 3 tcp 1040 ------- 0 1.0 3.1 16 52
+ 0.66624 3 2 ack 40 ------- 0 3.1 1.0 17 57
- 0.66624 3 2 ack 40 ------- 0 3.1 1.0 17 57
- 0.67704 2 3 tcp 1040 ------- 0 1.0 3.1 18 54
r 0.67704 3 2 ack 40 ------- 0 3.1 1.0 17 57
+ 0.67704 2 1 ack 40 ------- 0 3.1 1.0 17 57
- 0.67704 2 1 ack 40 ------- 0 3.1 1.0 17 57
r 0.6792 2 1 ack 40 ------- 0 3.1 1.0 17 57
+ 0.6792 1 2 tcp 1040 ------- 0 1.0 3.1 20 58
- 0.6792 1 2 tcp 1040 ------- 0 1.0 3.1 20 58
+ 0.6792 1 2 tcp 1040 ------- 0 1.0 3.1 21 59
- 0.68336 1 2 tcp 1040 ------- 0 1.0 3.1 21 59
r 0.68536 1 2 tcp 1040 ------- 0 1.0 3.1 20 58
+ 0.68536 2 3 tcp 1040 ------- 0 1.0 3.1 20 58
r 0.68704 2 3 tcp 1040 ------- 0 1.0 3.1 17 53
+ 0.68704 3 2 ack 40 ------- 0 3.1 1.0 17 60
- 0.68704 3 2 ack 40 ------- 0 3.1 1.0 17 60
r 0.68952 1 2 tcp 1040 ------- 0 1.0 3.1 21 59
+ 0.68952 2 3 tcp 1040 ------- 0 1.0 3.1 21 59
- 0.69784 2 3 tcp 1040 ------- 0 1.0 3.1 19 56
r 0.69784 3 2 ack 40 ------- 0 3.1 1.0 17 60
+ 0.69784 2 1 ack 40 ------- 0 3.1 1.0 17 60
- 0.69784 2 1 ack 40 ------- 0 3.1 1.0 17 60
r 0.7 2 1 ack 40 ------- 0 3.1 1.0 17 60
+ 0.7 1 2 tcp 1040 ------- 0 1.0 3.1 22 61
- 0.7 1 2 tcp 1040 ------- 0 1.0 3.1 22 61
r 0.70616 1 2 tcp 1040 ------- 0 1.0 3.1 22 61
+ 0.70616 2 3 tcp 1040 ------- 0 1.0 3.1 22 61
r 0.70784 2 3 tcp 1040 ------- 0 1.0 3.1 18 54
+ 0.70784 3 2 ack 40 ------- 0 3.1 1.0 19 62
- 0.70784 3 2 ack 40 ------- 0 3.1 1.0 19 62
- 0.71864 2 3 tcp 1040 ------- 0 1.0 3.1 20 58
r 0.71864 3 2 ack 40 ------- 0 3.1 1.0 19 62
+ 0.71864 2 1 ack 40 ------- 0 3.1 1.0 19 62
- 0.71864 2 1 ack 40 ------- 0 3.1 1.0 19 62
r 0.7208 2 1 ack 40 ------- 0 3.1 1.0 19 62
+ 0.7208 1 2 tcp 1040 ------- 0 1.0 3.1 23 63
- 0.7208 1 2 tcp 1040 ------- 0 1.0 3.1 23 63
+ 0.7208 1 2 tcp 1040 ------- 0 1.0 3.1 24 64
- 0.72496 1 2 tcp 1040 ------- 0 1.0 3.1 24 64
r 0.72696 1 2 tcp 1040 ------- 0 1.0 3.1 23 63
+ 0.72696 2 3 tcp 1040 ------- 0 1.0 3.1 23 63
r 0.72864 2 3 tcp 1040 ------- 0 1.0 3.1 19 56
+ 0.72864 3 2 ack 40 ------- 0 3.1 1.0 19 65
- 0.72864 3 2 ack 40 ------- 0 3.1 1.0 19 65
r 0.73112 1 2 tcp 1040 ------- 0 1.0 3.1 24 64
+ 0.73112 2 3 tcp 1040 ------- 0 1.0 3.1 24 64
- 0.73944 2 3 tcp 1040 ------- 0 1.0 3.1 21 59
r 0.73944 3 2 ack 40 ------- 0 3.1 1.0 19 65
+ 0.73944 2 1 ack 40 ------- 0 3.1 1.0 19 65
- 0.73944 2 1 ack 40 ------- 0 3.1 1.0 19 65
r 0.7416 2 1 ack 40 ------- 0 3.1 1.0 19 65
+ 0.7416 1 2 tcp 1040 ------- 0 1.0 3.1 25 66
- 0.7416 1 2 tcp 1040 ------- 0 1.0 3.1 25 66
r 0.74776 1 2 tcp 1040 ------- 0 1.0 3.1 25 66
+ 0.74776 2 3 tcp 1040 ------- 0 1.0 3.1 25 66
r 0.74944 2 3 tcp 1040 ------- 0 1.0 3.1 20 58
+ 0.74944 3 2 ack 40 ------- 0 3.1 1.0 21 67
- 0.74944 3 2 ack 40 ------- 0 3.1 1.0 21 67
- 0.76024 2 3 tcp 1040 ------- 0 1.0 3.1 22 61
r 0.76024 3 2 ack 40 ------- 0 3.1 1.0 21 67
+ 0.76024 2 1 ack 40 ------- 0 3.1 1.0 21 67
- 0.76024 2 1 ack 40 ------- 0 3.1 1.0 21 67
r 0.7624 2 1 ack 40 ------- 0 3.1 1.0 21 67
+ 0.7624 1 2 tcp 1040 ------- 0 1.0 3.1 26 68
- 0.7624 1 2 tcp 1040 ------- 0 1.0 3.1 26 68
+ 0.7624 1 2 tcp 1040 ------- 0 1.0 3.1 27 69
- 0.76656 1 2 tcp 1040 ------- 0 1.0 3.1 27 69
r 0.76856 1 2 tcp 1040 ------- 0 1.0 3.1 26 68
+ 0.76856 2 3 tcp 1040 ------- 0 1.0 3.1 26 68
r 0.77024 2 3 tcp 1040 ------- 0 1.0 3.1 21 59
+ 0.77024 3 2 ack 40 ------- 0 3.1 1.0 21 70
- 0.77024 3 2 ack 40 ------- 0 3.1 1.0 21 70
r 0.77272 1 2 tcp 1040 ------- 0 1.0 3.1 27 69
+ 0.77272 2 3 tcp 1040 ------- 0 1.0 3.1 27 69
d 0.77272 2 3 tcp 1040 ------- 0 1.0 3.1 27 69
- 0.78104 2 3 tcp 1040 ------- 0 1.0 3.1 23 63
r 0.78104 3 2 ack 40 ------- 0 3.1 1.0 21 70
+ 0.78104 2 1 ack 40 ------- 0 3.1 1.0 21 70
- 0.78104 2 1 ack 40 ------- 0 3.1 1.0 21 70
r 0.7832 2 1 ack 40 ------- 0 3.1 1.0 21 70
+ 0.7832 1 2 tcp 1040 ------- 0 1.0 3.1 28 71
- 0.7832 1 2 tcp 1040 ------- 0 1.0 3.1 28 71
r 0.78936 1 2 tcp 1040 ------- 0 1.0 3.1 28 71
+ 0.78936 2 3 tcp 1040 ------- 0 1.0 3.1 28 71
r 0.79104 2 3 tcp 1040 ------- 0 1.0 3.1 22 61
+ 0.79104 3 2 ack 40 ------- 0 3.1 1.0 23 72
- 0.79104 3 2 ack 40 ------- 0 3.1 1.0 23 72
- 0.80184 2 3 tcp 1040 ------- 0 1.0 3.1 24 64
r 0.80184 3 2 ack 40 ------- 0 3.1 1.0 23 72
+ 0.80184 2 1 ack 40 ------- 0 3.1 1.0 23 72
- 0.80184 2 1 ack 40 ------- 0 3.1 1.0 23 72
r 0.804 2 1 ack 40 ------- 0 3.1 1.0 23 72
+ 0.804 1 2 tcp 1040 ------- 0 1.0 3.1 29 73
- 0.804 1 2 tcp 1040 ------- 0 1.0 3.1 29 73
r 0.81016 1 2 tcp 1040 ------- 0 1.0 3.1 29 73
+ 0.81016 2 3 tcp 1040 ------- 0 1.0 3.1 29 73
r 0.81184 2 3 tcp 1040 ------- 0 1.0 3.1 23 63
+ 0.81184 3 2 ack 40 ------- 0 3.1 1.0 23 74
- 0.81184 3 2 ack 40 ------- 0 3.1 1.0 23 74
- 0.82264 2 3 tcp 1040 ------- 0 1.0 3.1 25 66
r 0.82264 3 2 ack 40 ------- 0 3.1 1.0 23 74
+ 0.82264 2 1 ack 40 ------- 0 3.1 1.0 23 74
- 0.82264 2 1 ack 40 ------- 0 3.1 1.0 23 74
r 0.8248 2 1 ack 40 ------- 0 3.1 1.0 23 74
+ 0.8248 1 2 tcp 1040 ------- 0 1.0 3.1 30 75
- 0.8248 1 2 tcp 1040 ------- 0 1.0 3.1 30 75
r 0.83096 1 2 tcp 1040 ------- 0 1.0 3.1 30 75
+ 0.83096 2 3 tcp 1040 ------- 0 1.0 3.1 30 75
r 0.83264 2 3 tcp 1040 ------- 0 1.0 3.1 24 64
+ 0.83264 3 2 ack 40 ------- 0 3.1 1.0 26 76
- 0.83264 3 2 ack 40 ------- 0 3.1 1.0 26 76
- 0.84344 2 3 tcp 1040 ------- 0 1.0 3.1 26 68
r 0.84344 3 2 ack 40 ------- 0 3.1 1.0 26 76
+ 0.84344 2 1 ack 40 ------- 0 3.1 1.0 26 76
- 0.84344 2 1 ack 40 ------- 0 3.1 1.0 26 76
r 0.8456 2 1 ack 40 ------- 0 3.1 1.0 26 76
+ 0.8456 1 2 tcp 1040 ------- 0 1.0 3.1 31 77
- 0.8456 1 2 tcp 1040 ------- 0 1.0 3.1 31 77
+ 0.8456 1 2 tcp 1040 ------- 0 1.0 3.1 32 78
- 0.84976 1 2 tcp 1040 ------- 0 1.0 3.1 32 78
r 0.85176 1 2 tcp 1040 ------- 0 1.0 3.1 31 77
+ 0.85176 2 3 tcp 1040 ------- 0 1.0 3.1 31 77
r 0.85344 2 3 tcp 1040 ------- 0 1.0 3.1 25 66
+ 0.85344 3 2 ack 40 ------- 0 3.1 1.0 26 79
- 0.85344 3 2 ack 40 ------- 0 3.1 1.0 26 79
r 0.85592 1 2 tcp 1040 ------- 0 1.0 3.1 32 78
+ 0.85592 2 3 tcp 1040 ------- 0 1.0 3.1 32 78
d 0.85592 2 3 tcp 1040 ------- 0 1.0 3.1 32 78
- 0.86424 2 3 tcp 1040 ------- 0 1.0 3.1 28 71
r 0.86424 3 2 ack 40 ------- 0 3.1 1.0 26 79
+ 0.86424 2 1 ack 40 ------- 0 3.1 1.0 26 79
- 0.86424 2 1 ack 40 ------- 0 3.1 1.0 26 79
r 0.8664 2 1 ack 40 ------- 0 3.1 1.0 26 79
+ 0.8664 1 2 tcp 1040 ------- 0 1.0 3.1 33 80
- 0.8664 1 2 tcp 1040 ------- 0 1.0 3.1 33 80
r 0.87256 1 2 tcp 1040 ------- 0 1.0 3.1 33 80
+ 0.87256 2 3 tcp 1040 ------- 0 1.0 3.1 33 80
r 0.87424 2 3 tcp 1040 ------- 0 1.0 3.1 26 68
+ 0.87424 3 2 ack 40 ------- 0 3.1 1.0 26 81
- 0.87424 3 2 ack 40 ------- 0 3.1 1.0 26 81
- 0.88504 2 3 tcp 1040 ------- 0 1.0 3.1 29 73
r 0.88504 3 2 ack 40 ------- 0 3.1 1.0 26 81
+ 0.88504 2 1 ack 40 ------- 0 3.1 1.0 26 81
- 0.88504 2 1 ack 40 ------- 0 3.1 1.0 26 81
r 0.8872 2 1 ack 40 ------- 0 3.1 1.0 26 81
+ 0.8872 1 2 tcp 1040 ------- 0 1.0 3.1 34 82
- 0.8872 1 2 tcp 1040 ------- 0 1.0 3.1 34 82
r 0.89336 1 2 tcp 1040 ------- 0 1.0 3.1 34 82
+ 0.89336 2 3 tcp 1040 ------- 0 1.0 3.1 34 82
r 0.89504 2 3 tcp 1040 ------- 0 1.0 3.1 28 71
+ 0.89504 3 2 ack 40 ------- 0 3.1 1.0 26 83
- 0.89504 3 2 ack 40 ------- 0 3.1 1.0 26 83
- 0.90584 2 3 tcp 1040 ------- 0 1.0 3.1 30 75
r 0.90584 3 2 ack 40 ------- 0 3.1 1.0 26 83
+ 0.90584 2 1 ack 40 ------- 0 3.1 1.0 26 83
- 0.90584 2 1 ack 40 ------- 0 3.1 1.0 26 83
r 0.908 2 1 ack 40 ------- 0 3.1 1.0 26 83
r 0.91584 2 3 tcp 1040 ------- 0 1.0 3.1 29 73
+ 0.91584 3 2 ack 40 ------- 0 3.1 1.0 26 84
- 0.91584 3 2 ack 40 ------- 0 3.1 1.0 26 84
- 0.92664 2 3 tcp 1040 ------- 0 1.0 3.1 31 77
r 0.92664 3 2 ack 40 ------- 0 3.1 1.0 26 84
+ 0.92664 2 1 ack 40 ------- 0 3.1 1.0 26 84
- 0.92664 2 1 ack 40 ------- 0 3.1 1.0 26 84
r 0.9288 2 1 ack 40 ------- 0 3.1 1.0 26 84
r 0.93664 2 3 tcp 1040 ------- 0 1.0 3.1 30 75
+ 0.93664 3 2 ack 40 ------- 0 3.1 1.0 26 85
- 0.93664 3 2 ack 40 ------- 0 3.1 1.0 26 85
- 0.94744 2 3 tcp 1040 ------- 0 1.0 3.1 33 80
r 0.94744 3 2 ack 40 ------- 0 3.1 1.0 26 85
+ 0.94744 2 1 ack 40 ------- 0 3.1 1.0 26 85
- 0.94744 2 1 ack 40 ------- 0 3.1 1.0 26 85
r 0.9496 2 1 ack 40 ------- 0 3.1 1.0 26 85
r 0.95744 2 3 tcp 1040 ------- 0 1.0 3.1 31 77
+ 0.95744 3 2 ack 40 ------- 0 3.1 1.0 26 86
- 0.95744 3 2 ack 40 ------- 0 3.1 1.0 26 86
- 0.96824 2 3 tcp 1040 ------- 0 1.0 3.1 34 82
r 0.96824 3 2 ack 40 ------- 0 3.1 1.0 26 86
+ 0.96824 2 1 ack 40 ------- 0 3.1 1.0 26 86
- 0.96824 2 1 ack 40 ------- 0 3.1 1.0 26 86
r 0.9704 2 1 ack 40 ------- 0 3.1 1.0 26 86
r 0.97824 2 3 tcp 1040 ------- 0 1.0 3.1 33 80
+ 0.97824 3 2 ack 40 ------- 0 3.1 1.0 26 87
- 0.97824 3 2 ack 40 ------- 0 3.1 1.0 26 87
r 0.98904 3 2 ack 40 ------- 0 3.1 1.0 26 87
+ 0.98904 2 1 ack 40 ------- 0 3.1 1.0 26 87
- 0.98904 2 1 ack 40 ------- 0 3.1 1.0 26 87
r 0.9912 2 1 ack 40 ------- 0 3.1 1.0 26 87
r 0.99904 2 3 tcp 1040 ------- 0 1.0 3.1 34 82
+ 0.99904 3 2 ack 40 ------- 0 3.1 1.0 26 88
- 0.99904 3 2 ack 40 ------- 0 3.1 1.0 26 88
r 1.00984 3 2 ack 40 ------- 0 3.1 1.0 26 88
+ 1.00984 2 1 ack 40 ------- 0 3.1 1.0 26 88
- 1.00984 2 1 ack 40 ------- 0 3.1 1.0 26 88
r 1.012 2 1 ack 40 ------- 0 3.1 1.0 26 88
+ 1.0456 1 2 tcp 1040 ---A--- 0 1.0 3.1 27 89
- 1.0456 1 2 tcp 1040 ---A--- 0 1.0 3.1 27 89
r 1.05176 1 2 tcp 1040 ---A--- 0 1.0 3.1 27 89
+ 1.05176 2 3 tcp 1040 ---A--- 0 1.0 3.1 27 89
- 1.05176 2 3 tcp 1040 ---A--- 0 1.0 3.1 27 89
r 1.08256 2 3 tcp 1040 ---A--- 0 1.0 3.1 27 89
+ 1.08256 3 2 ack 40 ------- 0 3.1 1.0 31 90
- 1.08256 3 2 ack 40 ------- 0 3.1 1.0 31 90
r 1.09336 3 2 ack 40 ------- 0 3.1 1.0 31 90
+ 1.09336 2 1 ack 40 ------- 0 3.1 1.0 31 90
- 1.09336 2 1 ack 40 ------- 0 3.1 1.0 31 90
r 1.09552 2 1 ack 40 ------- 0 3.1 1.0 31 90
+ 1.09552 1 2 tcp 1040 ------- 0 1.0 3.1 32 91
- 1.09552 1 2 tcp 1040 ------- 0 1.0 3.1 32 91
+ 1.09552 1 2 tcp 1040 ------- 0 1.0 3.1 33 92
- 1.09968 1 2 tcp 1040 ------- 0 1.0 3.1 33 92
+ 1.1 0 2 cbr 210 ------- 0 0.0 3.0 0 93
- 1.1 0 2 cbr 210 ------- 0 0.0 3.0 0 93
r 1.10168 1 2 tcp 1040 ------- 0 1.0 3.1 32 91
+ 1.10168 2 3 tcp 1040 ------- 0 1.0 3.1 32 91
- 1.10168 2 3 tcp 1040 ------- 0 1.0 3.1 32 91
r 1.10284 0 2 cbr 210 ------- 0 0.0 3.0 0 93
+ 1.10284 2 3 cbr 210 ------- 0 0.0 3.0 0 93
+ 1.10375 0 2 cbr 210 ------- 0 0.0 3.0 1 94
- 1.10375 0 2 cbr 210 ------- 0 0.0 3.0 1 94
r 1.10584 1 2 tcp 1040 ------- 0 1.0 3.1 33 92
+ 1.10584 2 3 tcp 1040 ------- 0 1.0 3.1 33 92
r 1.10659 0 2 cbr 210 ------- 0 0.0 3.0 1 94
+ 1.10659 2 3 cbr 210 ------- 0 0.0 3.0 1 94
+ 1.1075 0 2 cbr 210 ------- 0 0.0 3.0 2 95
- 1.1075 0 2 cbr 210 ------- 0 0.0 3.0 2 95
r 1.11034 0 2 cbr 210 ------- 0 0.0 3.0 2 95
+ 1.11034 2 3 cbr 210 ------- 0 0.0 3.0 2 95
+ 1.11125 0 2 cbr 210 ------- 0 0.0 3.0 3 96
- 1.11125 0 2 cbr 210 ------- 0 0.0 3.0 3 96
r 1.11409 0 2 cbr 210 ------- 0 0.0 3.0 3 96
+ 1.11409 2 3 cbr 210 ------- 0 0.0 3.0 3 96
d 1.11409 2 3 cbr 210 ------- 0 0.0 3.0 3 96
+ 1.115 0 2 cbr 210 ------- 0 0.0 3.0 4 97
- 1.115 0 2 cbr 210 ------- 0 0.0 3.0 4 97
r 1.11784 0 2 cbr 210 ------- 0 0.0 3.0 4 97
+ 1.11784 2 3 cbr 210 ------- 0 0.0 3.0 4 97
d 1.11784 2 3 cbr 210 ------- 0 0.0 3.0 4 97
+ 1.11875 0 2 cbr 210 ------- 0 0.0 3.0 5 98
- 1.11875 0 2 cbr 210 ------- 0 0.0 3.0 5 98
r 1.12159 0 2 cbr 210 ------- 0 0.0 3.0 5 98
+ 1.12159 2 3 cbr 210 ------- 0 0.0 3.0 5 98
d 1.12159 2 3 cbr 210 ------- 0 0.0 3.0 5 98
- 1.12248 2 3 cbr 210 ------- 0 0.0 3.0 0 93
+ 1.1225 0 2 cbr 210 ------- 0 0.0 3.0 6 99
- 1.1225 0 2 cbr 210 ------- 0 0.0 3.0 6 99
r 1.12534 0 2 cbr 210 ------- 0 0.0 3.0 6 99
+ 1.12534 2 3 cbr 210 ------- 0 0.0 3.0 6 99
+ 1.12625 0 2 cbr 210 ------- 0 0.0 3.0 7 100
- 1.12625 0 2 cbr 210 ------- 0 0.0 3.0 7 100
- 1.12668 2 3 tcp 1040 ------- 0 1.0 3.1 33 92
r 1.12909 0 2 cbr 210 ------- 0 0.0 3.0 7 100
+ 1.12909 2 3 cbr 210 ------- 0 0.0 3.0 7 100
+ 1.13 0 2 cbr 210 ------- 0 0.0 3.0 8 101
- 1.13 0 2 cbr 210 ------- 0 0.0 3.0 8 101
r 1.13248 2 3 tcp 1040 ------- 0 1.0 3.1 32 91
+ 1.13248 3 2 ack 40 ------- 0 3.1 1.0 34 102
- 1.13248 3 2 ack 40 ------- 0 3.1 1.0 34 102
r 1.13284 0 2 cbr 210 ------- 0 0.0 3.0 8 101
+ 1.13284 2 3 cbr 210 ------- 0 0.0 3.0 8 101
d 1.13284 2 3 cbr 210 ------- 0 0.0 3.0 8 101
+ 1.13375 0 2 cbr 210 ------- 0 0.0 3.0 9 103
- 1.13375 0 2 cbr 210 ------- 0 0.0 3.0 9 103
r 1.13659 0 2 cbr 210 ------- 0 0.0 3.0 9 103
+ 1.13659 2 3 cbr 210 ------- 0 0.0 3.0 9 103
d 1.13659 2 3 cbr 210 ------- 0 0.0 3.0 9 103
r 1.13668 2 3 cbr 210 ------- 0 0.0 3.0 0 93
+ 1.1375 0 2 cbr 210 ------- 0 0.0 3.0 10 104
- 1.1375 0 2 cbr 210 ------- 0 0.0 3.0 10 104
r 1.14034 0 2 cbr 210 ------- 0 0.0 3.0 10 104
+ 1.14034 2 3 cbr 210 ------- 0 0.0 3.0 10 104
d 1.14034 2 3 cbr 210 ------- 0 0.0 3.0 10 104
+ 1.14125 0 2 cbr 210 ------- 0 0.0 3.0 11 105
- 1.14125 0 2 cbr 210 ------- 0 0.0 3.0 11 105
r 1.14328 3 2 ack 40 ------- 0 3.1 1.0 34 102
+ 1.14328 2 1 ack 40 ------- 0 3.1 1.0 34 102
- 1.14328 2 1 ack 40 ------- 0 3.1 1.0 34 102
r 1.14409 0 2 cbr 210 ------- 0 0.0 3.0 11 105
+ 1.14409 2 3 cbr 210 ------- 0 0.0 3.0 11 105
d 1.14409 2 3 cbr 210 ------- 0 0.0 3.0 11 105
+ 1.145 0 2 cbr 210 ------- 0 0.0 3.0 12 106
- 1.145 0 2 cbr 210 ------- 0 0.0 3.0 12 106
r 1.14544 2 1 ack 40 ------- 0 3.1 1.0 34 102
+ 1.14544 1 2 tcp 1040 ------- 0 1.0 3.1 35 107
- 1.14544 1 2 tcp 1040 ------- 0 1.0 3.1 35 107
+ 1.14544 1 2 tcp 1040 ------- 0 1.0 3.1 36 108
+ 1.14544 1 2 tcp 1040 ------- 0 1.0 3.1 37 109
- 1.14748 2 3 cbr 210 ------- 0 0.0 3.0 1 94
r 1.14784 0 2 cbr 210 ------- 0 0.0 3.0 12 106
+ 1.14784 2 3 cbr 210 ------- 0 0.0 3.0 12 106
+ 1.14875 0 2 cbr 210 ------- 0 0.0 3.0 13 110
- 1.14875 0 2 cbr 210 ------- 0 0.0 3.0 13 110
- 1.1496 1 2 tcp 1040 ------- 0 1.0 3.1 36 108
r 1.15159 0 2 cbr 210 ------- 0 0.0 3.0 13 110
+ 1.15159 2 3 cbr 210 ------- 0 0.0 3.0 13 110
d 1.15159 2 3 cbr 210 ------- 0 0.0 3.0 13 110
r 1.1516 1 2 tcp 1040 ------- 0 1.0 3.1 35 107
+ 1.1516 2 3 tcp 1040 ------- 0 1.0 3.1 35 107
d 1.1516 2 3 tcp 1040 ------- 0 1.0 3.1 35 107
- 1.15168 2 3 cbr 210 ------- 0 0.0 3.0 2 95
+ 1.1525 0 2 cbr 210 ------- 0 0.0 3.0 14 111
- 1.1525 0 2 cbr 210 ------- 0 0.0 3.0 14 111
- 1.15376 1 2 tcp 1040 ------- 0 1.0 3.1 37 109
r 1.15534 0 2 cbr 210 ------- 0 0.0 3.0 14 111
+ 1.15534 2 3 cbr 210 ------- 0 0.0 3.0 14 111
r 1.15576 1 2 tcp 1040 ------- 0 1.0 3.1 36 108
+ 1.15576 2 3 tcp 1040 ------- 0 1.0 3.1 36 108
d 1.15576 2 3 tcp 1040 ------- 0 1.0 3.1 36 108
- 1.15588 2 3 cbr 210 ------- 0 0.0 3.0 6 99
+ 1.15625 0 2 cbr 210 ------- 0 0.0 3.0 15 112
- 1.15625 0 2 cbr 210 ------- 0 0.0 3.0 15 112
r 1.15748 2 3 tcp 1040 ------- 0 1.0 3.1 33 92
+ 1.15748 3 2 ack 40 ------- 0 3.1 1.0 34 113
- 1.15748 3 2 ack 40 ------- 0 3.1 1.0 34 113
r 1.15909 0 2 cbr 210 ------- 0 0.0 3.0 15 112
+ 1.15909 2 3 cbr 210 ------- 0 0.0 3.0 15 112
r 1.15992 1 2 tcp 1040 ------- 0 1.0 3.1 37 109
+ 1.15992 2 3 tcp 1040 ------- 0 1.0 3.1 37 109
d 1.15992 2 3 tcp 1040 ------- 0 1.0 3.1 37 109
+ 1.16 0 2 cbr 210 ------- 0 0.0 3.0 16 114
- 1.16 0 2 cbr 210 ------- 0 0.0 3.0 16 114
- 1.16008 2 3 cbr 210 ------- 0 0.0 3.0 7 100
r 1.16168 2 3 cbr 210 ------- 0 0.0 3.0 1 94
r 1.16284 0 2 cbr 210 ------- 0 0.0 3.0 16 114
+ 1.16284 2 3 cbr 210 ------- 0 0.0 3.0 16 114
+ 1.16375 0 2 cbr 210 ------- 0 0.0 3.0 17 115
- 1.16375 0 2 cbr 210 ------- 0 0.0 3.0 17 115
- 1.16428 2 3 cbr 210 ------- 0 0.0 3.0 12 106
r 1.16588 2 3 cbr 210 ------- 0 0.0 3.0 2 95
r 1.16659 0 2 cbr 210 ------- 0 0.0 3.0 17 115