V -t * -v 1.0a5 -a 0
A -t * -n 1 -p 0 -o 0x7fffffff -c 30 -a 1
A -t * -h 1 -m 1073741823 -s 0
n -t * -a 0 -s 0 -S UP -v circle -c black -i black
n -t * -a 1 -s 1 -S UP -v circle -c black -i black
n -t * -a 2 -s 2 -S UP -v circle -c black -i black
n -t * -a 3 -s 3 -S UP -v circle -c black -i black
l -t * -s 0 -d 2 -S UP -r 2000000 -D 0.002 -c black
l -t * -s 1 -d 2 -S UP -r 2000000 -D 0.002 -c black
l -t * -s 2 -d 3 -S UP -r 400000 -D 0.01 -c black
+ -t 0.1 -s 1 -d 2 -p tcp -e 40 -c 0 -i 0 -a 0 -x {1.0 3.1 0 ------- null}
- -t 0.1 -s 1 -d 2 -p tcp -e 40 -c 0 -i 0 -a 0 -x {1.0 3.1 0 ------- null}
h -t 0.1 -s 1 -d 2 -p tcp -e 40 -c 0 -i 0 -a 0 -x {1.0 3.1 -1 ------- null}
r -t 0.10216 -s 1 -d 2 -p tcp -e 40 -c 0 -i 0 -a 0 -x {1.0 3.1 0 ------- null}
+ -t 0.10216 -s 2 -d 3 -p tcp -e 40 -c 0 -i 0 -a 0 -x {1.0 3.1 0 ------- null}
- -t 0.10216 -s 2 -d 3 -p tcp -e 40 -c 0 -i 0 -a 0 -x {1.0 3.1 0 ------- null}
h -t 0.10216 -s 2 -d 3 -p tcp -e 40 -c 0 -i 0 -a 0 -x {1.0 3.1 -1 ------- null}
r -t 0.11296 -s 2 -d 3 -p tcp -e 40 -c 0 -i 0 -a 0 -x {1.0 3.1 0 ------- null}
+ -t 0.11296 -s 3 -d 2 -p ack -e 40 -c 0 -i 1 -a 0 -x {3.1 1.0 0 ------- null}
- -t 0.11296 -s 3 -d 2 -p ack -e 40 -c 0 -i 1 -a 0 -x {3.1 1.0 0 ------- null}
h -t 0.11296 -s 3 -d 2 -p ack -e 40 -c 0 -i 1 -a 0 -x {3.1 1.0 -1 ------- null}
r -t 0.12376 -s 3 -d 2 -p ack -e 40 -c 0 -i 1 -a 0 -x {3.1 1.0 0 ------- null}
+ -t 0.12376 -s 2 -d 1 -p ack -e 40 -c 0 -i 1 -a 0 -x {3.1 1.0 0 ------- null}
- -t 0.12376 -s 2 -d 1 -p ack -e 40 -c 0 -i 1 -a 0 -x {3.1 1.0 0 ------- null}
h -t 0.12376 -s 2 -d 1 -p ack -e 40 -c 0 -i 1 -a 0 -x {3.1 1.0 -1 ------- null}
r -t 0.12592 -s 2 -d 1 -p ack -e 40 -c 0 -i 1 -a 0 -x {3.1 1.0 0 ------- null}
+ -t 0.12592 -s 1 -d 2 -p tcp -e 1040 -c 0 -i 2 -a 0 -x {1.0 3.1 1 ------- null}
- -t 0.12592 -s 1 -d 2 -p tcp -e 1040 -c 0 -i 2 -a 0 -x {1.0 3.1 1 ------- null}
h -t 0.12592 -s 1 -d 2 -p tcp -e 1040 -c 0 -i 2 -a 0 -x {1.0 3.1 -1 ------- null}
+ -t 0.12592 -s 1 -d 2 -p tcp -e 1040 -c 0 -i 3 -a 0 -x {1.0 3.1 2 ------- null}
- -t 0.13008 -s 1 -d 2 -p tcp -e 1040 -c 0 -i 3 -a 0 -x {1.0 3.1 2 ------- null}
h -t 0.13008 -s 1 -d 2 -p tcp -e 1040 -c 0 -i 3 -a 0 -x {1.0 3.1 -1 ------- null}
r -t 0.13208 -s 1 -d 2 -p tcp -e 1040 -c 0 -i 2 -a 0 -x {1.0 3.1 1 ------- null}
+ -t 0.13208 -s 2 -d 3 -p tcp -e 1040 -c 0 -i 2 -a 0 -x {1.0 3.1 1 ------- null}
- -t 0.13208 -s 2 -d 3 -p tcp -e 1040 -c 0 -i 2 -a 0 -x {1.0 3.1 1 ------- null}
h -t 0.13208 -s 2 -d 3 -p tcp -e 1040 -c 0 -i 2 -a 0 -x {1.0 3.1 -1 ------- null}
r -t 0.13624 -s 1 -d 2 -p tcp -e 1040 -c 0 -i 3 -a 0 -x {1.0 3.1 2 ------- null}
+ -t 0.13624 -s 2 -d 3 -p tcp -e 1040 -c 0 -i 3 -a 0 -x {1.0 3.1 2 ------- null}
- -t 0.15288 -s 2 -d 3 -p tcp -e 1040 -c 0 -i 3 -a 0 -x {1.0 3.1 2 ------- null}
h -t 0.15288 -s 2 -d 3 -p tcp -e 1040 -c 0 -i 3 -a 0 -x {1.0 3.1 -1 ------- null}
r -t 0.16288 -s 2 -d 3 -p tcp -e 1040 -c 0 -i 2 -a 0 -x {1.0 3.1 1 ------- null}
+ -t 0.16288 -s 3 -d 2 -p ack -e 40 -c 0 -i 4 -a 0 -x {3.1 1.0 1 ------- null}
- -t 0.16288 -s 3 -d 2 -p ack -e 40 -c 0 -i 4 -a 0 -x {3.1 1.0 1 ------- null}
h -t 0.16288 -s 3 -d 2 -p ack -e 40 -c 0 -i 4 -a 0 -x {3.1 1.0 -1 ------- null}
r -t 0.17368 -s 3 -d 2 -p ack -e 40 -c 0 -i 4 -a 0 -x {3.1 1.0 1 ------- null}
+ -t 0.17368 -s 2 -d 1 -p ack -e 40 -c 0 -i 4 -a 0 -x {3.1 1.0 1 ------- null}
- -t 0.17368 -s 2 -d 1 -p ack -e 40 -c 0 -i 4 -a 0 -x {3.1 1.0 1 ------- null}
h -t 0.17368 -s 2 -d 1 -p ack -e 40 -c 0 -i 4 -a 0 -x {3.1 1.0 -1 ------- null}
r -t 0.17584 -s 2 -d 1 -p ack -e 40 -c 0 -i 4 -a 0 -x {3.1 1.0 1 ------- null}
+ -t 0.17584 -s 1 -d 2 -p tcp -e 1040 -c 0 -i 5 -a 0 -x {1.0 3.1 3 ------- null}
- -t 0.17584 -s 1 -d 2 -p tcp -e 1040 -c 0 -i 5 -a 0 -x {1.0 3.1 3 ------- null}
h -t 0.17584 -s 1 -d 2 -p tcp -e 1040 -c 0 -i 5 -a 0 -x {1.0 3.1 -1 ------- null}
+ -t 0.17584 -s 1 -d 2 -p tcp -e 1040 -c 0 -i 6 -a 0 -x {1.0 3.1 4 ------- null}
- -t 0.18 -s 1 -d 2 -p tcp -e 1040 -c 0 -i 6 -a 0 -x {1.0 3.1 4 ------- null}
h -t 0.18 -s 1 -d 2 -p tcp -e 1040 -c 0 -i 6 -a 0 -x {1.0 3.1 -1 ------- null}
r -t 0.182 -s 1 -d 2 -p tcp -e 1040 -c 0 -i 5 -a 0 -x {1.0 3.1 3 ------- null}
+ -t 0.182 -s 2 -d 3 -p tcp -e 1040 -c 0 -i 5 -a 0 -x {1.0 3.1 3 ------- null}
- -t 0.182 -s 2 -d 3 -p tcp -e 1040 -c 0 -i 5 -a 0 -x {1.0 3.1 3 ------- null}
h -t 0.182 -s 2 -d 3 -p tcp -e 1040 -c 0 -i 5 -a 0 -x {1.0 3.1 -1 ------- null}
r -t 0.18368 -s 2 -d 3 -p tcp -e 1040 -c 0 -i 3 -a 0 -x {1.0 3.1 2 ------- null}
+ -t 0.18368 -s 3 -d 2 -p ack -e 40 -c 0 -i 7 -a 0 -x {3.1 1.0 2 ------- null}
- -t 0.18368 -s 3 -d 2 -p ack -e 40 -c 0 -i 7 -a 0 -x {3.1 1.0 2 ------- null}
h -t 0.18368 -s 3 -d 2 -p ack -e 40 -c 0 -i 7 -a 0 -x {3.1 1.0 -1 ------- null}
r -t 0.18616 -s 1 -d 2 -p tcp -e 1040 -c 0 -i 6 -a 0 -x {1.0 3.1 4 ------- null}
+ -t 0.18616 -s 2 -d 3 -p tcp -e 1040 -c 0 -i 6 -a 0 -x {1.0 3.1 4 ------- null}
r -t 0.19448 -s 3 -d 2 -p ack -e 40 -c 0 -i 7 -a 0 -x {3.1 1.0 2 ------- null}
+ -t 0.19448 -s 2 -d 1 -p ack -e 40 -c 0 -i 7 -a 0 -x {3.1 1.0 2 ------- null}
- -t 0.19448 -s 2 -d 1 -p ack -e 40 -c 0 -i 7 -a 0 -x {3.1 1.0 2 ------- null}
h -t 0.19448 -s 2 -d 1 -p ack -e 40 -c 0 -i 7 -a 0 -x {3.1 1.0 -1 ------- null}
r -t 0.19664 -s 2 -d 1 -p ack -e 40 -c 0 -i 7 -a 0 -x {3.1 1.0 2 ------- null}
+ -t 0.19664 -s 1 -d 2 -p tcp -e 1040 -c 0 -i 8 -a 0 -x {1.0 3.1 5 ------- null}
- -t 0.19664 -s 1 -d 2 -p tcp -e 1040 -c 0 -i 8 -a 0 -x {1.0 3.1 5 ------- null}
h -t 0.19664 -s 1 -d 2 -p tcp -e 1040 -c 0 -i 8 -a 0 -x {1.0 3.1 -1 ------- null}
+ -t 0.19664 -s 1 -d 2 -p tcp -e 1040 -c 0 -i 9 -a 0 -x {1.0 3.1 6 ------- null}
- -t 0.2008 -s 1 -d 2 -p tcp -e 1040 -c 0 -i 9 -a 0 -x {1.0 3.1 6 ------- null}
h -t 0.2008 -s 1 -d 2 -p tcp -e 1040 -c 0 -i 9 -a 0 -x {1.0 3.1 -1 ------- null}
- -t 0.2028 -s 2 -d 3 -p tcp -e 1040 -c 0 -i 6 -a 0 -x {1.0 3.1 4 ------- null}
h -t 0.2028 -s 2 -d 3 -p tcp -e 1040 -c 0 -i 6 -a 0 -x {1.0 3.1 -1 ------- null}
r -t 0.2028 -s 1 -d 2 -p tcp -e 1040 -c 0 -i 8 -a 0 -x {1.0 3.1 5 ------- null}
+ -t 0.2028 -s 2 -d 3 -p tcp -e 1040 -c 0 -i 8 -a 0 -x {1.0 3.1 5 ------- null}
r -t 0.20696 -s 1 -d 2 -p tcp -e 1040 -c 0 -i 9 -a 0 -x {1.0 3.1 6 ------- null}
+ -t 0.20696 -s 2 -d 3 -p tcp -e 1040 -c 0 -i 9 -a 0 -x {1.0 3.1 6 ------- null}
r -t 0.2128 -s 2 -d 3 -p tcp -e 1040 -c 0 -i 5 -a 0 -x {1.0 3.1 3 ------- null}
+ -t 0.2128 -s 3 -d 2 -p ack -e 40 -c 0 -i 10 -a 0 -x {3.1 1.0 3 ------- null}
- -t 0.2128 -s 3 -d 2 -p ack -e 40 -c 0 -i 10 -a 0 -x {3.1 1.0 3 ------- null}
h -t 0.2128 -s 3 -d 2 -p ack -e 40 -c 0 -i 10 -a 0 -x {3.1 1.0 -1 ------- null}
- -t 0.2236 -s 2 -d 3 -p tcp -e 1040 -c 0 -i 8 -a 0 -x {1.0 3.1 5 ------- null}
h -t 0.2236 -s 2 -d 3 -p tcp -e 1040 -c 0 -i 8 -a 0 -x {1.0 3.1 -1 ------- null}
r -t 0.2236 -s 3 -d 2 -p ack -e 40 -c 0 -i 10 -a 0 -x {3.1 1.0 3 ------- null}
+ -t 0.2236 -s 2 -d 1 -p ack -e 40 -c 0 -i 10 -a 0 -x {3.1 1.0 3 ------- null}
- -t 0.2236 -s 2 -d 1 -p ack -e 40 -c 0 -i 10 -a 0 -x {3.1 1.0 3 ------- null}
h -t 0.2236 -s 2 -d 1 -p ack -e 40 -c 0 -i 10 -a 0 -x {3.1 1.0 -1 ------- null}
r -t 0.22576 -s 2 -d 1 -p ack -e 40 -c 0 -i 10 -a 0 -x {3.1 1.0 3 ------- null}
+ -t 0.22576 -s 1 -d 2 -p tcp -e 1040 -c 0 -i 11 -a 0 -x {1.0 3.1 7 ------- null}
- -t 0.22576 -s 1 -d 2 -p tcp -e 1040 -c 0 -i 11 -a 0 -x {1.0 3.1 7 ------- null}
h -t 0.22576 -s 1 -d 2 -p tcp -e 1040 -c 0 -i 11 -a 0 -x {1.0 3.1 -1 ------- null}
+ -t 0.22576 -s 1 -d 2 -p tcp -e 1040 -c 0 -i 12 -a 0 -x {1.0 3.1 8 ------- null}
- -t 0.22992 -s 1 -d 2 -p tcp -e 1040 -c 0 -i 12 -a 0 -x {1.0 3.1 8 ------- null}
h -t 0.22992 -s 1 -d 2 -p tcp -e 1040 -c 0 -i 12 -a 0 -x {1.0 3.1 -1 ------- null}
r -t 0.23192 -s 1 -d 2 -p tcp -e 1040 -c 0 -i 11 -a 0 -x {1.0 3.1 7 ------- null}
+ -t 0.23192 -s 2 -d 3 -p tcp -e 1040 -c 0 -i 11 -a 0 -x {1.0 3.1 7 ------- null}
r -t 0.2336 -s 2 -d 3 -p tcp -e 1040 -c 0 -i 6 -a 0 -x {1.0 3.1 4 ------- null}
+ -t 0.2336 -s 3 -d 2 -p ack -e 40 -c 0 -i 13 -a 0 -x {3.1 1.0 4 ------- null}
- -t 0.2336 -s 3 -d 2 -p ack -e 40 -c 0 -i 13 -a 0 -x {3.1 1.0 4 ------- null}
h -t 0.2336 -s 3 -d 2 -p ack -e 40 -c 0 -i 13 -a 0 -x {3.1 1.0 -1 ------- null}
r -t 0.23608 -s 1 -d 2 -p tcp -e 1040 -c 0 -i 12 -a 0 -x {1.0 3.1 8 ------- null}
+ -t 0.23608 -s 2 -d 3 -p tcp -e 1040 -c 0 -i 12 -a 0 -x {1.0 3.1 8 ------- null}
- -t 0.2444 -s 2 -d 3 -p tcp -e 1040 -c 0 -i 9 -a 0 -x {1.0 3.1 6 ------- null}
h -t 0.2444 -s 2 -d 3 -p tcp -e 1040 -c 0 -i 9 -a 0 -x {1.0 3.1 -1 ------- null}
r -t 0.2444 -s 3 -d 2 -p ack -e 40 -c 0 -i 13 -a 0 -x {3.1 1.0 4 ------- null}
+ -t 0.2444 -s 2 -d 1 -p ack -e 40 -c 0 -i 13 -a 0 -x {3.1 1.0 4 ------- null}
- -t 0.2444 -s 2 -d 1 -p ack -e 40 -c 0 -i 13 -a 0 -x {3.1 1.0 4 ------- null}
h -t 0.2444 -s 2 -d 1 -p ack -e 40 -c 0 -i 13 -a 0 -x {3.1 1.0 -1 ------- null}
r -t 0.24656 -s 2 -d 1 -p ack -e 40 -c 0 -i 13 -a 0 -x {3.1 1.0 4 ------- null}
+ -t 0.24656 -s 1 -d 2 -p tcp -e 1040 -c 0 -i 14 -a 0 -x {1.0 3.1 9 ------- null}
- -t 0.24656 -s 1 -d 2 -p tcp -e 1040 -c 0 -i 14 -a 0 -x {1.0 3.1 9 ------- null}
h -t 0.24656 -s 1 -d 2 -p tcp -e 1040 -c 0 -i 14 -a 0 -x {1.0 3.1 -1 ------- null}
+ -t 0.24656 -s 1 -d 2 -p tcp -e 1040 -c 0 -i 15 -a 0 -x {1.0 3.1 10 ------- null}
- -t 0.25072 -s 1 -d 2 -p tcp -e 1040 -c 0 -i 15 -a 0 -x {1.0 3.1 10 ------- null}
h -t 0.25072 -s 1 -d 2 -p tcp -e 1040 -c 0 -i 15 -a 0 -x {1.0 3.1 -1 ------- null}
r -t 0.25272 -s 1 -d 2 -p tcp -e 1040 -c 0 -i 14 -a 0 -x {1.0 3.1 9 ------- null}
+ -t 0.25272 -s 2 -d 3 -p tcp -e 1040 -c 0 -i 14 -a 0 -x {1.0 3.1 9 ------- null}
r -t 0.2544 -s 2 -d 3 -p tcp -e 1040 -c 0 -i 8 -a 0 -x {1.0 3.1 5 ------- null}
+ -t 0.2544 -s 3 -d 2 -p ack -e 40 -c 0 -i 16 -a 0 -x {3.1 1.0 5 ------- null}
- -t 0.2544 -s 3 -d 2 -p ack -e 40 -c 0 -i 16 -a 0 -x {3.1 1.0 5 ------- null}
h -t 0.2544 -s 3 -d 2 -p ack -e 40 -c 0 -i 16 -a 0 -x {3.1 1.0 -1 ------- null}
r -t 0.25688 -s 1 -d 2 -p tcp -e 1040 -c 0 -i 15 -a 0 -x {1.0 3.1 10 ------- null}
+ -t 0.25688 -s 2 -d 3 -p tcp -e 1040 -c 0 -i 15 -a 0 -x {1.0 3.1 10 ------- null}
- -t 0.2652 -s 2 -d 3 -p tcp -e 1040 -c 0 -i 11 -a 0 -x {1.0 3.1 7 ------- null}
h -t 0.2652 -s 2 -d 3 -p tcp -e 1040 -c 0 -i 11 -a 0 -x {1.0 3.1 -1 ------- null}
r -t 0.2652 -s 3 -d 2 -p ack -e 40 -c 0 -i 16 -a 0 -x {3.1 1.0 5 ------- null}
+ -t 0.2652 -s 2 -d 1 -p ack -e 40 -c 0 -i 16 -a 0 -x {3.1 1.0 5 ------- null}
- -t 0.2652 -s 2 -d 1 -p ack -e 40 -c 0 -i 16 -a 0 -x {3.1 1.0 5 ------- null}
h -t 0.2652 -s 2 -d 1 -p ack -e 40 -c 0 -i 16 -a 0 -x {3.1 1.0 -1 ------- null}
r -t 0.26736 -s 2 -d 1 -p ack -e 40 -c 0 -i 16 -a 0 -x {3.1 1.0 5 ------- null}
+ -t 0.26736 -s 1 -d 2 -p tcp -e 1040 -c 0 -i 17 -a 0 -x {1.0 3.1 11 ------- null}
- -t 0.26736 -s 1 -d 2 -p tcp -e 1040 -c 0 -i 17 -a 0 -x {1.0 3.1 11 ------- null}
h -t 0.26736 -s 1 -d 2 -p tcp -e 1040 -c 0 -i 17 -a 0 -x {1.0 3.1 -1 ------- null}
+ -t 0.26736 -s 1 -d 2 -p tcp -e 1040 -c 0 -i 18 -a 0 -x {1.0 3.1 12 ------- null}
- -t 0.27152 -s 1 -d 2 -p tcp -e 1040 -c 0 -i 18 -a 0 -x {1.0 3.1 12 ------- null}
h -t 0.27152 -s 1 -d 2 -p tcp -e 1040 -c 0 -i 18 -a 0 -x {1.0 3.1 -1 ------- null}
r -t 0.27352 -s 1 -d 2 -p tcp -e 1040 -c 0 -i 17 -a 0 -x {1.0 3.1 11 ------- null}
+ -t 0.27352 -s 2 -d 3 -p tcp -e 1040 -c 0 -i 17 -a 0 -x {1.0 3.1 11 ------- null}
r -t 0.2752 -s 2 -d 3 -p tcp -e 1040 -c 0 -i 9 -a 0 -x {1.0 3.1 6 ------- null}
+ -t 0.2752 -s 3 -d 2 -p ack -e 40 -c 0 -i 19 -a 0 -x {3.1 1.0 6 ------- null}
- -t 0.2752 -s 3 -d 2 -p ack -e 40 -c 0 -i 19 -a 0 -x {3.1 1.0 6 ------- null}
h -t 0.2752 -s 3 -d 2 -p ack -e 40 -c 0 -i 19 -a 0 -x {3.1 1.0 -1 ------- null}
r -t 0.27768 -s 1 -d 2 -p tcp -e 1040 -c 0 -i 18 -a 0 -x {1.0 3.1 12 ------- null}
+ -t 0.27768 -s 2 -d 3 -p tcp -e 1040 -c 0 -i 18 -a 0 -x {1.0 3.1 12 ------- null}
d -t 0.27768 -s 2 -d 3 -p tcp -e 1040 -c 0 -i 18 -a 0 -x {1.0 3.1 12 ------- null}
- -t 0.286 -s 2 -d 3 -p tcp -e 1040 -c 0 -i 12 -a 0 -x {1.0 3.1 8 ------- null}
h -t 0.286 -s 2 -d 3 -p tcp -e 1040 -c 0 -i 12 -a 0 -x {1.0 3.1 -1 ------- null}
r -t 0.286 -s 3 -d 2 -p ack -e 40 -c 0 -i 19 -a 0 -x {3.1 1.0 6 ------- null}
+ -t 0.286 -s 2 -d 1 -p ack -e 40 -c 0 -i 19 -a 0 -x {3.1 1.0 6 ------- null}
- -t 0.286 -s 2 -d 1 -p ack -e 40 -c 0 -i 19 -a 0 -x {3.1 1.0 6 ------- null}
h -t 0.286 -s 2 -d 1 -p ack -e 40 -c 0 -i 19 -a 0 -x {3.1 1.0 -1 ------- null}
r -t 0.28816 -s 2 -d 1 -p ack -e 40 -c 0 -i 19 -a 0 -x {3.1 1.0 6 ------- null}
+ -t 0.28816 -s 1 -d 2 -p tcp -e 1040 -c 0 -i 20 -a 0 -x {1.0 3.1 13 ------- null}
- -t 0.28816 -s 1 -d 2 -p tcp -e 1040 -c 0 -i 20 -a 0 -x {1.0 3.1 13 ------- null}
h -t 0.28816 -s 1 -d 2 -p tcp -e 1040 -c 0 -i 20 -a 0 -x {1.0 3.1 -1 ------- null}
+ -t 0.28816 -s 1 -d 2 -p tcp -e 1040 -c 0 -i 21 -a 0 -x {1.0 3.1 14 ------- null}
- -t 0.29232 -s 1 -d 2 -p tcp -e 1040 -c 0 -i 21 -a 0 -x {1.0 3.1 14 ------- null}
h -t 0.29232 -s 1 -d 2 -p tcp -e 1040 -c 0 -i 21 -a 0 -x {1.0 3.1 -1 ------- null}
r -t 0.29432 -s 1 -d 2 -p tcp -e 1040 -c 0 -i 20 -a 0 -x {1.0 3.1 13 ------- null}
+ -t 0.29432 -s 2 -d 3 -p tcp -e 1040 -c 0 -i 20 -a 0 -x {1.0 3.1 13 ------- null}
r -t 0.296 -s 2 -d 3 -p tcp -e 1040 -c 0 -i 11 -a 0 -x {1.0 3.1 7 ------- null}
+ -t 0.296 -s 3 -d 2 -p ack -e 40 -c 0 -i 22 -a 0 -x {3.1 1.0 7 ------- null}
- -t 0.296 -s 3 -d 2 -p ack -e 40 -c 0 -i 22 -a 0 -x {3.1 1.0 7 ------- null}
h -t 0.296 -s 3 -d 2 -p ack -e 40 -c 0 -i 22 -a 0 -x {3.1 1.0 -1 ------- null}
r -t 0.29848 -s 1 -d 2 -p tcp -e 1040 -c 0 -i 21 -a 0 -x {1.0 3.1 14 ------- null}
+ -t 0.29848 -s 2 -d 3 -p tcp -e 1040 -c 0 -i 21 -a 0 -x {1.0 3.1 14 ------- null}
d -t 0.29848 -s 2 -d 3 -p tcp -e 1040 -c 0 -i 21 -a 0 -x {1.0 3.1 14 ------- null}
- -t 0.3068 -s 2 -d 3 -p tcp -e 1040 -c 0 -i 14 -a 0 -x {1.0 3.1 9 ------- null}
h -t 0.3068 -s 2 -d 3 -p tcp -e 1040 -c 0 -i 14 -a 0 -x {1.0 3.1 -1 ------- null}
r -t 0.3068 -s 3 -d 2 -p ack -e 40 -c 0 -i 22 -a 0 -x {3.1 1.0 7 ------- null}
+ -t 0.3068 -s 2 -d 1 -p ack -e 40 -c 0 -i 22 -a 0 -x {3.1 1.0 7 ------- null}
- -t 0.3068 -s 2 -d 1 -p ack -e 40 -c 0 -i 22 -a 0 -x {3.1 1.0 7 ------- null}
h -t 0.3068 -s 2 -d 1 -p ack -e 40 -c 0 -i 22 -a 0 -x {3.1 1.0 -1 ------- null}
r -t 0.30896 -s 2 -d 1 -p ack -e 40 -c 0 -i 22 -a 0 -x {3.1 1.0 7 ------- null}
+ -t 0.30896 -s 1 -d 2 -p tcp -e 1040 -c 0 -i 23 -a 0 -x {1.0 3.1 15 ------- null}
- -t 0.30896 -s 1 -d 2 -p tcp -e 1040 -c 0 -i 23 -a 0 -x {1.0 3.1 15 ------- null}
h -t 0.30896 -s 1 -d 2 -p tcp -e 1040 -c 0 -i 23 -a 0 -x {1.0 3.1 -1 ------- null}
+ -t 0.30896 -s 1 -d 2 -p tcp -e 1040 -c 0 -i 24 -a 0 -x {1.0 3.1 16 ------- null}
- -t 0.31312 -s 1 -d 2 -p tcp -e 1040 -c 0 -i 24 -a 0 -x {1.0 3.1 16 ------- null}
h -t 0.31312 -s 1 -d 2 -p tcp -e 1040 -c 0 -i 24 -a 0 -x {1.0 3.1 -1 ------- null}
r -t 0.31512 -s 1 -d 2 -p tcp -e 1040 -c 0 -i 23 -a 0 -x {1.0 3.1 15 ------- null}
+ -t 0.31512 -s 2 -d 3 -p tcp -e 1040 -c 0 -i 23 -a 0 -x {1.0 3.1 15 ------- null}
r -t 0.3168 -s 2 -d 3 -p tcp -e 1040 -c 0 -i 12 -a 0 -x {1.0 3.1 8 ------- null}
+ -t 0.3168 -s 3 -d 2 -p ack -e 40 -c 0 -i 25 -a 0 -x {3.1 1.0 8 ------- null}
- -t 0.3168 -s 3 -d 2 -p ack -e 40 -c 0 -i 25 -a 0 -x {3.1 1.0 8 ------- null}
h -t 0.3168 -s 3 -d 2 -p ack -e 40 -c 0 -i 25 -a 0 -x {3.1 1.0 -1 ------- null}
r -t 0.31928 -s 1 -d 2 -p tcp -e 1040 -c 0 -i 24 -a 0 -x {1.0 3.1 16 ------- null}
+ -t 0.31928 -s 2 -d 3 -p tcp -e 1040 -c 0 -i 24 -a 0 -x {1.0 3.1 16 ------- null}
d -t 0.31928 -s 2 -d 3 -p tcp -e 1040 -c 0 -i 24 -a 0 -x {1.0 3.1 16 ------- null}
- -t 0.3276 -s 2 -d 3 -p tcp -e 1040 -c 0 -i 15 -a 0 -x {1.0 3.1 10 ------- null}
h -t 0.3276 -s 2 -d 3 -p tcp -e 1040 -c 0 -i 15 -a 0 -x {1.0 3.1 -1 ------- null}
r -t 0.3276 -s 3 -d 2 -p ack -e 40 -c 0 -i 25 -a 0 -x {3.1 1.0 8 ------- null}
+ -t 0.3276 -s 2 -d 1 -p ack -e 40 -c 0 -i 25 -a 0 -x {3.1 1.0 8 ------- null}
- -t 0.3276 -s 2 -d 1 -p ack -e 40 -c 0 -i 25 -a 0 -x {3.1 1.0 8 ------- null}
h -t 0.3276 -s 2 -d 1 -p ack -e 40 -c 0 -i 25 -a 0 -x {3.1 1.0 -1 ------- null}
r -t 0.32976 -s 2 -d 1 -p ack -e 40 -c 0 -i 25 -a 0 -x {3.1 1.0 8 ------- null}
+ -t 0.32976 -s 1 -d 2 -p tcp -e 1040 -c 0 -i 26 -a 0 -x {1.0 3.1 17 ------- null}
- -t 0.32976 -s 1 -d 2 -p tcp -e 1040 -c 0 -i 26 -a 0 -x {1.0 3.1 17 ------- null}
h -t 0.32976 -s 1 -d 2 -p tcp -e 1040 -c 0 -i 26 -a 0 -x {1.0 3.1 -1 ------- null}
+ -t 0.32976 -s 1 -d 2 -p tcp -e 1040 -c 0 -i 27 -a 0 -x {1.0 3.1 18 ------- null}
- -t 0.33392 -s 1 -d 2 -p tcp -e 1040 -c 0 -i 27 -a 0 -x {1.0 3.1 18 ------- null}
h -t 0.33392 -s 1 -d 2 -p tcp -e 1040 -c 0 -i 27 -a 0 -x {1.0 3.1 -1 ------- null}
r -t 0.33592 -s 1 -d 2 -p tcp -e 1040 -c 0 -i 26 -a 0 -x {1.0 3.1 17 ------- null}
+ -t 0.33592 -s 2 -d 3 -p tcp -e 1040 -c 0 -i 26 -a 0 -x {1.0 3.1 17 ------- null}
r -t 0.3376 -s 2 -d 3 -p tcp -e 1040 -c 0 -i 14 -a 0 -x {1.0 3.1 9 ------- null}
+ -t 0.3376 -s 3 -d 2 -p ack -e 40 -c 0 -i 28 -a 0 -x {3.1 1.0 9 ------- null}
- -t 0.3376 -s 3 -d 2 -p ack -e 40 -c 0 -i 28 -a 0 -x {3.1 1.0 9 ------- null}
h -t 0.3376 -s 3 -d 2 -p ack -e 40 -c 0 -i 28 -a 0 -x {3.1 1.0 -1 ------- null}
r -t 0.34008 -s 1 -d 2 -p tcp -e 1040 -c 0 -i 27 -a 0 -x {1.0 3.1 18 ------- null}
+ -t 0.34008 -s 2 -d 3 -p tcp -e 1040 -c 0 -i 27 -a 0 -x {1.0 3.1 18 ------- null}
d -t 0.34008 -s 2 -d 3 -p tcp -e 1040 -c 0 -i 27 -a 0 -x {1.0 3.1 18 ------- null}
- -t 0.3484 -s 2 -d 3 -p tcp -e 1040 -c 0 -i 17 -a 0 -x {1.0 3.1 11 ------- null}
h -t 0.3484 -s 2 -d 3 -p tcp -e 1040 -c 0 -i 17 -a 0 -x {1.0 3.1 -1 ------- null}
r -t 0.3484 -s 3 -d 2 -p ack -e 40 -c 0 -i 28 -a 0 -x {3.1 1.0 9 ------- null}
+ -t 0.3484 -s 2 -d 1 -p ack -e 40 -c 0 -i 28 -a 0 -x {3.1 1.0 9 ------- null}
- -t 0.3484 -s 2 -d 1 -p ack -e 40 -c 0 -i 28 -a 0 -x {3.1 1.0 9 ------- null}
h -t 0.3484 -s 2 -d 1 -p ack -e 40 -c 0 -i 28 -a 0 -x {3.1 1.0 -1 ------- null}
r -t 0.35056 -s 2 -d 1 -p ack -e 40 -c 0 -i 28 -a 0 -x {3.1 1.0 9 ------- null}
+ -t 0.35056 -s 1 -d 2 -p tcp -e 1040 -c 0 -i 29 -a 0 -x {1.0 3.1 19 ------- null}
- -t 0.35056 -s 1 -d 2 -p tcp -e 1040 -c 0 -i 29 -a 0 -x {1.0 3.1 19 ------- null}
h -t 0.35056 -s 1 -d 2 -p tcp -e 1040 -c 0 -i 29 -a 0 -x {1.0 3.1 -1 ------- null}
+ -t 0.35056 -s 1 -d 2 -p tcp -e 1040 -c 0 -i 30 -a 0 -x {1.0 3.1 20 ------- null}
- -t 0.35472 -s 1 -d 2 -p tcp -e 1040 -c 0 -i 30 -a 0 -x {1.0 3.1 20 ------- null}
h -t 0.35472 -s 1 -d 2 -p tcp -e 1040 -c 0 -i 30 -a 0 -x {1.0 3.1 -1 ------- null}
r -t 0.35672 -s 1 -d 2 -p tcp -e 1040 -c 0 -i 29 -a 0 -x {1.0 3.1 19 ------- null}
+ -t 0.35672 -s 2 -d 3 -p tcp -e 1040 -c 0 -i 29 -a 0 -x {1.0 3.1 19 ------- null}
r -t 0.3584 -s 2 -d 3 -p tcp -e 1040 -c 0 -i 15 -a 0 -x {1.0 3.1 10 ------- null}
+ -t 0.3584 -s 3 -d 2 -p ack -e 40 -c 0 -i 31 -a 0 -x {3.1 1.0 10 ------- null}
- -t 0.3584 -s 3 -d 2 -p ack -e 40 -c 0 -i 31 -a 0 -x {3.1 1.0 10 ------- null}
h -t 0.3584 -s 3 -d 2 -p ack -e 40 -c 0 -i 31 -a 0 -x {3.1 1.0 -1 ------- null}
r -t 0.36088 -s 1 -d 2 -p tcp -e 1040 -c 0 -i 30 -a 0 -x {1.0 3.1 20 ------- null}
+ -t 0.36088 -s 2 -d 3 -p tcp -e 1040 -c 0 -i 30 -a 0 -x {1.0 3.1 20 ------- null}
d -t 0.36088 -s 2 -d 3 -p tcp -e 1040 -c 0 -i 30 -a 0 -x {1.0 3.1 20 ------- null}
- -t 0.3692 -s 2 -d 3 -p tcp -e 1040 -c 0 -i 20 -a 0 -x {1.0 3.1 13 ------- null}
h -t 0.3692 -s 2 -d 3 -p tcp -e 1040 -c 0 -i 20 -a 0 -x {1.0 3.1 -1 ------- null}
r -t 0.3692 -s 3 -d 2 -p ack -e 40 -c 0 -i 31 -a 0 -x {3.1 1.0 10 ------- null}
+ -t 0.3692 -s 2 -d 1 -p ack -e 40 -c 0 -i 31 -a 0 -x {3.1 1.0 10 ------- null}
- -t 0.3692 -s 2 -d 1 -p ack -e 40 -c 0 -i 31 -a 0 -x {3.1 1.0 10 ------- null}
h -t 0.3692 -s 2 -d 1 -p ack -e 40 -c 0 -i 31 -a 0 -x {3.1 1.0 -1 ------- null}
r -t 0.37136 -s 2 -d 1 -p ack -e 40 -c 0 -i 31 -a 0 -x {3.1 1.0 10 ------- null}
+ -t 0.37136 -s 1 -d 2 -p tcp -e 1040 -c 0 -i 32 -a 0 -x {1.0 3.1 21 ------- null}
- -t 0.37136 -s 1 -d 2 -p tcp -e 1040 -c 0 -i 32 -a 0 -x {1.0 3.1 21 ------- null}
h -t 0.37136 -s 1 -d 2 -p tcp -e 1040 -c 0 -i 32 -a 0 -x {1.0 3.1 -1 ------- null}
+ -t 0.37136 -s 1 -d 2 -p tcp -e 1040 -c 0 -i 33 -a 0 -x {1.0 3.1 22 ------- null}
- -t 0.37552 -s 1 -d 2 -p tcp -e 1040 -c 0 -i 33 -a 0 -x {1.0 3.1 22 ------- null}
h -t 0.37552 -s 1 -d 2 -p tcp -e 1040 -c 0 -i 33 -a 0 -x {1.0 3.1 -1 ------- null}
r -t 0.37752 -s 1 -d 2 -p tcp -e 1040 -c 0 -i 32 -a 0 -x {1.0 3.1 21 ------- null}
+ -t 0.37752 -s 2 -d 3 -p tcp -e 1040 -c 0 -i 32 -a 0 -x {1.0 3.1 21 ------- null}
r -t 0.3792 -s 2 -d 3 -p tcp -e 1040 -c 0 -i 17 -a 0 -x {1.0 3.1 11 ------- null}
+ -t 0.3792 -s 3 -d 2 -p ack -e 40 -c 0 -i 34 -a 0 -x {3.1 1.0 11 ------- null}
- -t 0.3792 -s 3 -d 2 -p ack -e 40 -c 0 -i 34 -a 0 -x {3.1 1.0 11 ------- null}
h -t 0.3792 -s 3 -d 2 -p ack -e 40 -c 0 -i 34 -a 0 -x {3.1 1.0 -1 ------- null}
r -t 0.38168 -s 1 -d 2 -p tcp -e 1040 -c 0 -i 33 -a 0 -x {1.0 3.1 22 ------- null}
+ -t 0.38168 -s 2 -d 3 -p tcp -e 1040 -c 0 -i 33 -a 0 -x {1.0 3.1 22 ------- null}
d -t 0.38168 -s 2 -d 3 -p tcp -e 1040 -c 0 -i 33 -a 0 -x {1.0 3.1 22 ------- null}
- -t 0.39 -s 2 -d 3 -p tcp -e 1040 -c 0 -i 23 -a 0 -x {1.0 3.1 15 ------- null}
h -t 0.39 -s 2 -d 3 -p tcp -e 1040 -c 0 -i 23 -a 0 -x {1.0 3.1 -1 ------- null}
r -t 0.39 -s 3 -d 2 -p ack -e 40 -c 0 -i 34 -a 0 -x {3.1 1.0 11 ------- null}
+ -t 0.39 -s 2 -d 1 -p ack -e 40 -c 0 -i 34 -a 0 -x {3.1 1.0 11 ------- null}
- -t 0.39 -s 2 -d 1 -p ack -e 40 -c 0 -i 34 -a 0 -x {3.1 1.0 11 ------- null}
h -t 0.39 -s 2 -d 1 -p ack -e 40 -c 0 -i 34 -a 0 -x {3.1 1.0 -1 ------- null}
r -t 0.39216 -s 2 -d 1 -p ack -e 40 -c 0 -i 34 -a 0 -x {3.1 1.0 11 ------- null}
+ -t 0.39216 -s 1 -d 2 -p tcp -e 1040 -c 0 -i 35 -a 0 -x {1.0 3.1 23 ------- null}
- -t 0.39216 -s 1 -d 2 -p tcp -e 1040 -c 0 -i 35 -a 0 -x {1.0 3.1 23 ------- null}
h -t 0.39216 -s 1 -d 2 -p tcp -e 1040 -c 0 -i 35 -a 0 -x {1.0 3.1 -1 ------- null}
+ -t 0.39216 -s 1 -d 2 -p tcp -e 1040 -c 0 -i 36 -a 0 -x {1.0 3.1 24 ------- null}
- -t 0.39632 -s 1 -d 2 -p tcp -e 1040 -c 0 -i 36 -a 0 -x {1.0 3.1 24 ------- null}
h -t 0.39632 -s 1 -d 2 -p tcp -e 1040 -c 0 -i 36 -a 0 -x {1.0 3.1 -1 ------- null}
r -t 0.39832 -s 1 -d 2 -p tcp -e 1040 -c 0 -i 35 -a 0 -x {1.0 3.1 23 ------- null}
+ -t 0.39832 -s 2 -d 3 -p tcp -e 1040 -c 0 -i 35 -a 0 -x {1.0 3.1 23 ------- null}
r -t 0.4 -s 2 -d 3 -p tcp -e 1040 -c 0 -i 20 -a 0 -x {1.0 3.1 13 ------- null}
+ -t 0.4 -s 3 -d 2 -p ack -e 40 -c 0 -i 37 -a 0 -x {3.1 1.0 11 ------- null}
- -t 0.4 -s 3 -d 2 -p ack -e 40 -c 0 -i 37 -a 0 -x {3.1 1.0 11 ------- null}
h -t 0.4 -s 3 -d 2 -p ack -e 40 -c 0 -i 37 -a 0 -x {3.1 1.0 -1 ------- null}
r -t 0.40248 -s 1 -d 2 -p tcp -e 1040 -c 0 -i 36 -a 0 -x {1.0 3.1 24 ------- null}
+ -t 0.40248 -s 2 -d 3 -p tcp -e 1040 -c 0 -i 36 -a 0 -x {1.0 3.1 24 ------- null}
d -t 0.40248 -s 2 -d 3 -p tcp -e 1040 -c 0 -i 36 -a 0 -x {1.0 3.1 24 ------- null}
- -t 0.4108 -s 2 -d 3 -p tcp -e 1040 -c 0 -i 26 -a 0 -x {1.0 3.1 17 ------- null}
h -t 0.4108 -s 2 -d 3 -p tcp -e 1040 -c 0 -i 26 -a 0 -x {1.0 3.1 -1 ------- null}
r -t 0.4108 -s 3 -d 2 -p ack -e 40 -c 0 -i 37 -a 0 -x {3.1 1.0 11 ------- null}
+ -t 0.4108 -s 2 -d 1 -p ack -e 40 -c 0 -i 37 -a 0 -x {3.1 1.0 11 ------- null}
- -t 0.4108 -s 2 -d 1 -p ack -e 40 -c 0 -i 37 -a 0 -x {3.1 1.0 11 ------- null}
h -t 0.4108 -s 2 -d 1 -p ack -e 40 -c 0 -i 37 -a 0 -x {3.1 1.0 -1 ------- null}
r -t 0.41296 -s 2 -d 1 -p ack -e 40 -c 0 -i 37 -a 0 -x {3.1 1.0 11 ------- null}
+ -t 0.41296 -s 1 -d 2 -p tcp -e 1040 -c 0 -i 38 -a 0 -x {1.0 3.1 25 ------- null}
- -t 0.41296 -s 1 -d 2 -p tcp -e 1040 -c 0 -i 38 -a 0 -x {1.0 3.1 25 ------- null}
h -t 0.41296 -s 1 -d 2 -p tcp -e 1040 -c 0 -i 38 -a 0 -x {1.0 3.1 -1 ------- null}
r -t 0.41912 -s 1 -d 2 -p tcp -e 1040 -c 0 -i 38 -a 0 -x {1.0 3.1 25 ------- null}
+ -t 0.41912 -s 2 -d 3 -p tcp -e 1040 -c 0 -i 38 -a 0 -x {1.0 3.1 25 ------- null}
r -t 0.4208 -s 2 -d 3 -p tcp -e 1040 -c 0 -i 23 -a 0 -x {1.0 3.1 15 ------- null}
+ -t 0.4208 -s 3 -d 2 -p ack -e 40 -c 0 -i 39 -a 0 -x {3.1 1.0 11 ------- null}
- -t 0.4208 -s 3 -d 2 -p ack -e 40 -c 0 -i 39 -a 0 -x {3.1 1.0 11 ------- null}
h -t 0.4208 -s 3 -d 2 -p ack -e 40 -c 0 -i 39 -a 0 -x {3.1 1.0 -1 ------- null}
- -t 0.4316 -s 2 -d 3 -p tcp -e 1040 -c 0 -i 29 -a 0 -x {1.0 3.1 19 ------- null}
h -t 0.4316 -s 2 -d 3 -p tcp -e 1040 -c 0 -i 29 -a 0 -x {1.0 3.1 -1 ------- null}
r -t 0.4316 -s 3 -d 2 -p ack -e 40 -c 0 -i 39 -a 0 -x {3.1 1.0 11 ------- null}
+ -t 0.4316 -s 2 -d 1 -p ack -e 40 -c 0 -i 39 -a 0 -x {3.1 1.0 11 ------- null}
- -t 0.4316 -s 2 -d 1 -p ack -e 40 -c 0 -i 39 -a 0 -x {3.1 1.0 11 ------- null}
h -t 0.4316 -s 2 -d 1 -p ack -e 40 -c 0 -i 39 -a 0 -x {3.1 1.0 -1 ------- null}
r -t 0.43376 -s 2 -d 1 -p ack -e 40 -c 0 -i 39 -a 0 -x {3.1 1.0 11 ------- null}
+ -t 0.43376 -s 1 -d 2 -p tcp -e 1040 -c 0 -i 40 -a 0 -x {1.0 3.1 26 ------- null}
- -t 0.43376 -s 1 -d 2 -p tcp -e 1040 -c 0 -i 40 -a 0 -x {1.0 3.1 26 ------- null}
h -t 0.43376 -s 1 -d 2 -p tcp -e 1040 -c 0 -i 40 -a 0 -x {1.0 3.1 -1 ------- null}
r -t 0.43992 -s 1 -d 2 -p tcp -e 1040 -c 0 -i 40 -a 0 -x {1.0 3.1 26 ------- null}
+ -t 0.43992 -s 2 -d 3 -p tcp -e 1040 -c 0 -i 40 -a 0 -x {1.0 3.1 26 ------- null}
r -t 0.4416 -s 2 -d 3 -p tcp -e 1040 -c 0 -i 26 -a 0 -x {1.0 3.1 17 ------- null}
+ -t 0.4416 -s 3 -d 2 -p ack -e 40 -c 0 -i 41 -a 0 -x {3.1 1.0 11 ------- null}
- -t 0.4416 -s 3 -d 2 -p ack -e 40 -c 0 -i 41 -a 0 -x {3.1 1.0 11 ------- null}
h -t 0.4416 -s 3 -d 2 -p ack -e 40 -c 0 -i 41 -a 0 -x {3.1 1.0 -1 ------- null}
- -t 0.4524 -s 2 -d 3 -p tcp -e 1040 -c 0 -i 32 -a 0 -x {1.0 3.1 21 ------- null}
h -t 0.4524 -s 2 -d 3 -p tcp -e 1040 -c 0 -i 32 -a 0 -x {1.0 3.1 -1 ------- null}
r -t 0.4524 -s 3 -d 2 -p ack -e 40 -c 0 -i 41 -a 0 -x {3.1 1.0 11 ------- null}
+ -t 0.4524 -s 2 -d 1 -p ack -e 40 -c 0 -i 41 -a 0 -x {3.1 1.0 11 ------- null}
- -t 0.4524 -s 2 -d 1 -p ack -e 40 -c 0 -i 41 -a 0 -x {3.1 1.0 11 ------- null}
h -t 0.4524 -s 2 -d 1 -p ack -e 40 -c 0 -i 41 -a 0 -x {3.1 1.0 -1 ------- null}
r -t 0.45456 -s 2 -d 1 -p ack -e 40 -c 0 -i 41 -a 0 -x {3.1 1.0 11 ------- null}
+ -t 0.45456 -s 1 -d 2 -p tcp -e 1040 -c 0 -i 42 -a 0 -x {1.0 3.1 12 ---A--- null}
- -t 0.45456 -s 1 -d 2 -p tcp -e 1040 -c 0 -i 42 -a 0 -x {1.0 3.1 12 ---A--- null}
h -t 0.45456 -s 1 -d 2 -p tcp -e 1040 -c 0 -i 42 -a 0 -x {1.0 3.1 -1 ---A--- null}
r -t 0.46072 -s 1 -d 2 -p tcp -e 1040 -c 0 -i 42 -a 0 -x {1.0 3.1 12 ---A--- null}
+ -t 0.46072 -s 2 -d 3 -p tcp -e 1040 -c 0 -i 42 -a 0 -x {1.0 3.1 12 ---A--- null}
r -t 0.4624 -s 2 -d 3 -p tcp -e 1040 -c 0 -i 29 -a 0 -x {1.0 3.1 19 ------- null}
+ -t 0.4624 -s 3 -d 2 -p ack -e 40 -c 0 -i 43 -a 0 -x {3.1 1.0 11 ------- null}
- -t 0.4624 -s 3 -d 2 -p ack -e 40 -c 0 -i 43 -a 0 -x {3.1 1.0 11 ------- null}
h -t 0.4624 -s 3 -d 2 -p ack -e 40 -c 0 -i 43 -a 0 -x {3.1 1.0 -1 ------- null}
- -t 0.4732 -s 2 -d 3 -p tcp -e 1040 -c 0 -i 35 -a 0 -x {1.0 3.1 23 ------- null}
h -t 0.4732 -s 2 -d 3 -p tcp -e 1040 -c 0 -i 35 -a 0 -x {1.0 3.1 -1 ------- null}
r -t 0.4732 -s 3 -d 2 -p ack -e 40 -c 0 -i 43 -a 0 -x {3.1 1.0 11 ------- null}
+ -t 0.4732 -s 2 -d 1 -p ack -e 40 -c 0 -i 43 -a 0 -x {3.1 1.0 11 ------- null}
- -t 0.4732 -s 2 -d 1 -p ack -e 40 -c 0 -i 43 -a 0 -x {3.1 1.0 11 ------- null}
h -t 0.4732 -s 2 -d 1 -p ack -e 40 -c 0 -i 43 -a 0 -x {3.1 1.0 -1 ------- null}
r -t 0.47536 -s 2 -d 1 -p ack -e 40 -c 0 -i 43 -a 0 -x {3.1 1.0 11 ------- null}
r -t 0.4832 -s 2 -d 3 -p tcp -e 1040 -c 0 -i 32 -a 0 -x {1.0 3.1 21 ------- null}
+ -t 0.4832 -s 3 -d 2 -p ack -e 40 -c 0 -i 44 -a 0 -x {3.1 1.0 11 ------- null}
- -t 0.4832 -s 3 -d 2 -p ack -e 40 -c 0 -i 44 -a 0 -x {3.1 1.0 11 ------- null}
h -t 0.4832 -s 3 -d 2 -p ack -e 40 -c 0 -i 44 -a 0 -x {3.1 1.0 -1 ------- null}
- -t 0.494 -s 2 -d 3 -p tcp -e 1040 -c 0 -i 38 -a 0 -x {1.0 3.1 25 ------- null}
h -t 0.494 -s 2 -d 3 -p tcp -e 1040 -c 0 -i 38 -a 0 -x {1.0 3.1 -1 ------- null}
r -t 0.494 -s 3 -d 2 -p ack -e 40 -c 0 -i 44 -a 0 -x {3.1 1.0 11 ------- null}
+ -t 0.494 -s 2 -d 1 -p ack -e 40 -c 0 -i 44 -a 0 -x {3.1 1.0 11 ------- null}
- -t 0.494 -s 2 -d 1 -p ack -e 40 -c 0 -i 44 -a 0 -x {3.1 1.0 11 ------- null}
h -t 0.494 -s 2 -d 1 -p ack -e 40 -c 0 -i 44 -a 0 -x {3.1 1.0 -1 ------- null}
r -t 0.49616 -s 2 -d 1 -p ack -e 40 -c 0 -i 44 -a 0 -x {3.1 1.0 11 ------- null}
r -t 0.504 -s 2 -d 3 -p tcp -e 1040 -c 0 -i 35 -a 0 -x {1.0 3.1 23 ------- null}
+ -t 0.504 -s 3 -d 2 -p ack -e 40 -c 0 -i 45 -a 0 -x {3.1 1.0 11 ------- null}
- -t 0.504 -s 3 -d 2 -p ack -e 40 -c 0 -i 45 -a 0 -x {3.1 1.0 11 ------- null}
h -t 0.504 -s 3 -d 2 -p ack -e 40 -c 0 -i 45 -a 0 -x {3.1 1.0 -1 ------- null}
- -t 0.5148 -s 2 -d 3 -p tcp -e 1040 -c 0 -i 40 -a 0 -x {1.0 3.1 26 ------- null}
h -t 0.5148 -s 2 -d 3 -p tcp -e 1040 -c 0 -i 40 -a 0 -x {1.0 3.1 -1 ------- null}
r -t 0.5148 -s 3 -d 2 -p ack -e 40 -c 0 -i 45 -a 0 -x {3.1 1.0 11 ------- null}
+ -t 0.5148 -s 2 -d 1 -p ack -e 40 -c 0 -i 45 -a 0 -x {3.1 1.0 11 ------- null}
- -t 0.5148 -s 2 -d 1 -p ack -e 40 -c 0 -i 45 -a 0 -x {3.1 1.0 11 ------- null}
h -t 0.5148 -s 2 -d 1 -p ack -e 40 -c 0 -i 45 -a 0 -x {3.1 1.0 -1 ------- null}
r -t 0.51696 -s 2 -d 1 -p ack -e 40 -c 0 -i 45 -a 0 -x {3.1 1.0 11 ------- null}
r -t 0.5248 -s 2 -d 3 -p tcp -e 1040 -c 0 -i 38 -a 0 -x {1.0 3.1 25 ------- null}
+ -t 0.5248 -s 3 -d 2 -p ack -e 40 -c 0 -i 46 -a 0 -x {3.1 1.0 11 ------- null}
- -t 0.5248 -s 3 -d 2 -p ack -e 40 -c 0 -i 46 -a 0 -x {3.1 1.0 11 ------- null}
h -t 0.5248 -s 3 -d 2 -p ack -e 40 -c 0 -i 46 -a 0 -x {3.1 1.0 -1 ------- null}
- -t 0.5356 -s 2 -d 3 -p tcp -e 1040 -c 0 -i 42 -a 0 -x {1.0 3.1 12 ---A--- null}
h -t 0.5356 -s 2 -d 3 -p tcp -e 1040 -c 0 -i 42 -a 0 -x {1.0 3.1 -1 ---A--- null}
r -t 0.5356 -s 3 -d 2 -p ack -e 40 -c 0 -i 46 -a 0 -x {3.1 1.0 11 ------- null}
+ -t 0.5356 -s 2 -d 1 -p ack -e 40 -c 0 -i 46 -a 0 -x {3.1 1.0 11 ------- null}
- -t 0.5356 -s 2 -d 1 -p ack -e 40 -c 0 -i 46 -a 0 -x {3.1 1.0 11 ------- null}
h -t 0.5356 -s 2 -d 1 -p ack -e 40 -c 0 -i 46 -a 0 -x {3.1 1.0 -1 ------- null}
r -t 0.53776 -s 2 -d 1 -p ack -e 40 -c 0 -i 46 -a 0 -x {3.1 1.0 11 ------- null}
r -t 0.5456 -s 2 -d 3 -p tcp -e 1040 -c 0 -i 40 -a 0 -x {1.0 3.1 26 ------- null}
+ -t 0.5456 -s 3 -d 2 -p ack -e 40 -c 0 -i 47 -a 0 -x {3.1 1.0 11 ------- null}
- -t 0.5456 -s 3 -d 2 -p ack -e 40 -c 0 -i 47 -a 0 -x {3.1 1.0 11 ------- null}
h -t 0.5456 -s 3 -d 2 -p ack -e 40 -c 0 -i 47 -a 0 -x {3.1 1.0 -1 ------- null}
r -t 0.5564 -s 3 -d 2 -p ack -e 40 -c 0 -i 47 -a 0 -x {3.1 1.0 11 ------- null}