V -t * -v 1.0a5 -a 0
A -t * -n 1 -p 0 -o 0x7fffffff -c 30 -a 1
A -t * -h 1 -m 1073741823 -s 0
c -t * -i 1 -n blue
c -t * -i 2 -n red
n -t * -a 4 -s 4 -S UP -v circle -c black -i black
n -t * -a 0 -s 0 -S UP -v circle -c black -i black
n -t * -a 5 -s 5 -S UP -v circle -c black -i black
n -t * -a 1 -s 1 -S UP -v circle -c black -i black
n -t * -a 2 -s 2 -S UP -v circle -c black -i black
n -t * -a 3 -s 3 -S UP -v circle -c black -i black
l -t * -s 0 -d 2 -S UP -r 2000000 -D 0.002 -c black
l -t * -s 2 -d 3 -S UP -r 400000 -D 0.0050000000000000001 -c black
l -t * -s 1 -d 2 -S UP -r 2000000 -D 0.002 -c black
l -t * -s 3 -d 4 -S UP -r 2000000 -D 0.002 -c black
l -t * -s 3 -d 5 -S UP -r 2000000 -D 0.002 -c black
+ -t 1.2 -s 0 -d 2 -p tcp -e 40 -c 0 -i 0 -a 0 -x {0.0 5.0 0 ------- null}
- -t 1.2 -s 0 -d 2 -p tcp -e 40 -c 0 -i 0 -a 0 -x {0.0 5.0 0 ------- null}
h -t 1.2 -s 0 -d 2 -p tcp -e 40 -c 0 -i 0 -a 0 -x {0.0 5.0 -1 ------- null}
r -t 1.20216 -s 0 -d 2 -p tcp -e 40 -c 0 -i 0 -a 0 -x {0.0 5.0 0 ------- null}
+ -t 1.20216 -s 2 -d 3 -p tcp -e 40 -c 0 -i 0 -a 0 -x {0.0 5.0 0 ------- null}
- -t 1.20216 -s 2 -d 3 -p tcp -e 40 -c 0 -i 0 -a 0 -x {0.0 5.0 0 ------- null}
h -t 1.20216 -s 2 -d 3 -p tcp -e 40 -c 0 -i 0 -a 0 -x {0.0 5.0 -1 ------- null}
r -t 1.20796 -s 2 -d 3 -p tcp -e 40 -c 0 -i 0 -a 0 -x {0.0 5.0 0 ------- null}
+ -t 1.20796 -s 3 -d 5 -p tcp -e 40 -c 0 -i 0 -a 0 -x {0.0 5.0 0 ------- null}
- -t 1.20796 -s 3 -d 5 -p tcp -e 40 -c 0 -i 0 -a 0 -x {0.0 5.0 0 ------- null}
h -t 1.20796 -s 3 -d 5 -p tcp -e 40 -c 0 -i 0 -a 0 -x {0.0 5.0 -1 ------- null}
r -t 1.21012 -s 3 -d 5 -p tcp -e 40 -c 0 -i 0 -a 0 -x {0.0 5.0 0 ------- null}
+ -t 1.21012 -s 5 -d 3 -p ack -e 40 -c 0 -i 1 -a 0 -x {5.0 0.0 0 ------- null}
- -t 1.21012 -s 5 -d 3 -p ack -e 40 -c 0 -i 1 -a 0 -x {5.0 0.0 0 ------- null}
h -t 1.21012 -s 5 -d 3 -p ack -e 40 -c 0 -i 1 -a 0 -x {5.0 0.0 -1 ------- null}
r -t 1.21228 -s 5 -d 3 -p ack -e 40 -c 0 -i 1 -a 0 -x {5.0 0.0 0 ------- null}
+ -t 1.21228 -s 3 -d 2 -p ack -e 40 -c 0 -i 1 -a 0 -x {5.0 0.0 0 ------- null}
- -t 1.21228 -s 3 -d 2 -p ack -e 40 -c 0 -i 1 -a 0 -x {5.0 0.0 0 ------- null}
h -t 1.21228 -s 3 -d 2 -p ack -e 40 -c 0 -i 1 -a 0 -x {5.0 0.0 -1 ------- null}
r -t 1.21808 -s 3 -d 2 -p ack -e 40 -c 0 -i 1 -a 0 -x {5.0 0.0 0 ------- null}
+ -t 1.21808 -s 2 -d 0 -p ack -e 40 -c 0 -i 1 -a 0 -x {5.0 0.0 0 ------- null}
- -t 1.21808 -s 2 -d 0 -p ack -e 40 -c 0 -i 1 -a 0 -x {5.0 0.0 0 ------- null}
h -t 1.21808 -s 2 -d 0 -p ack -e 40 -c 0 -i 1 -a 0 -x {5.0 0.0 -1 ------- null}
r -t 1.22024 -s 2 -d 0 -p ack -e 40 -c 0 -i 1 -a 0 -x {5.0 0.0 0 ------- null}
+ -t 1.22024 -s 0 -d 2 -p tcp -e 1040 -c 0 -i 2 -a 0 -x {0.0 5.0 1 ------- null}
- -t 1.22024 -s 0 -d 2 -p tcp -e 1040 -c 0 -i 2 -a 0 -x {0.0 5.0 1 ------- null}
h -t 1.22024 -s 0 -d 2 -p tcp -e 1040 -c 0 -i 2 -a 0 -x {0.0 5.0 -1 ------- null}
+ -t 1.22024 -s 0 -d 2 -p tcp -e 1040 -c 0 -i 3 -a 0 -x {0.0 5.0 2 ------- null}
- -t 1.2244 -s 0 -d 2 -p tcp -e 1040 -c 0 -i 3 -a 0 -x {0.0 5.0 2 ------- null}
h -t 1.2244 -s 0 -d 2 -p tcp -e 1040 -c 0 -i 3 -a 0 -x {0.0 5.0 -1 ------- null}
r -t 1.2264 -s 0 -d 2 -p tcp -e 1040 -c 0 -i 2 -a 0 -x {0.0 5.0 1 ------- null}
+ -t 1.2264 -s 2 -d 3 -p tcp -e 1040 -c 0 -i 2 -a 0 -x {0.0 5.0 1 ------- null}
- -t 1.2264 -s 2 -d 3 -p tcp -e 1040 -c 0 -i 2 -a 0 -x {0.0 5.0 1 ------- null}
h -t 1.2264 -s 2 -d 3 -p tcp -e 1040 -c 0 -i 2 -a 0 -x {0.0 5.0 -1 ------- null}
r -t 1.23056 -s 0 -d 2 -p tcp -e 1040 -c 0 -i 3 -a 0 -x {0.0 5.0 2 ------- null}
+ -t 1.23056 -s 2 -d 3 -p tcp -e 1040 -c 0 -i 3 -a 0 -x {0.0 5.0 2 ------- null}
- -t 1.2472 -s 2 -d 3 -p tcp -e 1040 -c 0 -i 3 -a 0 -x {0.0 5.0 2 ------- null}
h -t 1.2472 -s 2 -d 3 -p tcp -e 1040 -c 0 -i 3 -a 0 -x {0.0 5.0 -1 ------- null}
r -t 1.2522 -s 2 -d 3 -p tcp -e 1040 -c 0 -i 2 -a 0 -x {0.0 5.0 1 ------- null}
+ -t 1.2522 -s 3 -d 5 -p tcp -e 1040 -c 0 -i 2 -a 0 -x {0.0 5.0 1 ------- null}
- -t 1.2522 -s 3 -d 5 -p tcp -e 1040 -c 0 -i 2 -a 0 -x {0.0 5.0 1 ------- null}
h -t 1.2522 -s 3 -d 5 -p tcp -e 1040 -c 0 -i 2 -a 0 -x {0.0 5.0 -1 ------- null}
r -t 1.25836 -s 3 -d 5 -p tcp -e 1040 -c 0 -i 2 -a 0 -x {0.0 5.0 1 ------- null}
+ -t 1.25836 -s 5 -d 3 -p ack -e 40 -c 0 -i 4 -a 0 -x {5.0 0.0 1 ------- null}
- -t 1.25836 -s 5 -d 3 -p ack -e 40 -c 0 -i 4 -a 0 -x {5.0 0.0 1 ------- null}
h -t 1.25836 -s 5 -d 3 -p ack -e 40 -c 0 -i 4 -a 0 -x {5.0 0.0 -1 ------- null}
r -t 1.26052 -s 5 -d 3 -p ack -e 40 -c 0 -i 4 -a 0 -x {5.0 0.0 1 ------- null}
+ -t 1.26052 -s 3 -d 2 -p ack -e 40 -c 0 -i 4 -a 0 -x {5.0 0.0 1 ------- null}
- -t 1.26052 -s 3 -d 2 -p ack -e 40 -c 0 -i 4 -a 0 -x {5.0 0.0 1 ------- null}
h -t 1.26052 -s 3 -d 2 -p ack -e 40 -c 0 -i 4 -a 0 -x {5.0 0.0 -1 ------- null}
r -t 1.26632 -s 3 -d 2 -p ack -e 40 -c 0 -i 4 -a 0 -x {5.0 0.0 1 ------- null}
+ -t 1.26632 -s 2 -d 0 -p ack -e 40 -c 0 -i 4 -a 0 -x {5.0 0.0 1 ------- null}
- -t 1.26632 -s 2 -d 0 -p ack -e 40 -c 0 -i 4 -a 0 -x {5.0 0.0 1 ------- null}
h -t 1.26632 -s 2 -d 0 -p ack -e 40 -c 0 -i 4 -a 0 -x {5.0 0.0 -1 ------- null}
r -t 1.26848 -s 2 -d 0 -p ack -e 40 -c 0 -i 4 -a 0 -x {5.0 0.0 1 ------- null}
+ -t 1.26848 -s 0 -d 2 -p tcp -e 1040 -c 0 -i 5 -a 0 -x {0.0 5.0 3 ------- null}
- -t 1.26848 -s 0 -d 2 -p tcp -e 1040 -c 0 -i 5 -a 0 -x {0.0 5.0 3 ------- null}
h -t 1.26848 -s 0 -d 2 -p tcp -e 1040 -c 0 -i 5 -a 0 -x {0.0 5.0 -1 ------- null}
+ -t 1.26848 -s 0 -d 2 -p tcp -e 1040 -c 0 -i 6 -a 0 -x {0.0 5.0 4 ------- null}
- -t 1.27264 -s 0 -d 2 -p tcp -e 1040 -c 0 -i 6 -a 0 -x {0.0 5.0 4 ------- null}
h -t 1.27264 -s 0 -d 2 -p tcp -e 1040 -c 0 -i 6 -a 0 -x {0.0 5.0 -1 ------- null}
r -t 1.273 -s 2 -d 3 -p tcp -e 1040 -c 0 -i 3 -a 0 -x {0.0 5.0 2 ------- null}
+ -t 1.273 -s 3 -d 5 -p tcp -e 1040 -c 0 -i 3 -a 0 -x {0.0 5.0 2 ------- null}
- -t 1.273 -s 3 -d 5 -p tcp -e 1040 -c 0 -i 3 -a 0 -x {0.0 5.0 2 ------- null}
h -t 1.273 -s 3 -d 5 -p tcp -e 1040 -c 0 -i 3 -a 0 -x {0.0 5.0 -1 ------- null}
r -t 1.27464 -s 0 -d 2 -p tcp -e 1040 -c 0 -i 5 -a 0 -x {0.0 5.0 3 ------- null}
+ -t 1.27464 -s 2 -d 3 -p tcp -e 1040 -c 0 -i 5 -a 0 -x {0.0 5.0 3 ------- null}
- -t 1.27464 -s 2 -d 3 -p tcp -e 1040 -c 0 -i 5 -a 0 -x {0.0 5.0 3 ------- null}
h -t 1.27464 -s 2 -d 3 -p tcp -e 1040 -c 0 -i 5 -a 0 -x {0.0 5.0 -1 ------- null}
r -t 1.2788 -s 0 -d 2 -p tcp -e 1040 -c 0 -i 6 -a 0 -x {0.0 5.0 4 ------- null}
+ -t 1.2788 -s 2 -d 3 -p tcp -e 1040 -c 0 -i 6 -a 0 -x {0.0 5.0 4 ------- null}
r -t 1.27916 -s 3 -d 5 -p tcp -e 1040 -c 0 -i 3 -a 0 -x {0.0 5.0 2 ------- null}
+ -t 1.27916 -s 5 -d 3 -p ack -e 40 -c 0 -i 7 -a 0 -x {5.0 0.0 2 ------- null}
- -t 1.27916 -s 5 -d 3 -p ack -e 40 -c 0 -i 7 -a 0 -x {5.0 0.0 2 ------- null}
h -t 1.27916 -s 5 -d 3 -p ack -e 40 -c 0 -i 7 -a 0 -x {5.0 0.0 -1 ------- null}
r -t 1.28132 -s 5 -d 3 -p ack -e 40 -c 0 -i 7 -a 0 -x {5.0 0.0 2 ------- null}
+ -t 1.28132 -s 3 -d 2 -p ack -e 40 -c 0 -i 7 -a 0 -x {5.0 0.0 2 ------- null}
- -t 1.28132 -s 3 -d 2 -p ack -e 40 -c 0 -i 7 -a 0 -x {5.0 0.0 2 ------- null}
h -t 1.28132 -s 3 -d 2 -p ack -e 40 -c 0 -i 7 -a 0 -x {5.0 0.0 -1 ------- null}
r -t 1.28712 -s 3 -d 2 -p ack -e 40 -c 0 -i 7 -a 0 -x {5.0 0.0 2 ------- null}
+ -t 1.28712 -s 2 -d 0 -p ack -e 40 -c 0 -i 7 -a 0 -x {5.0 0.0 2 ------- null}
- -t 1.28712 -s 2 -d 0 -p ack -e 40 -c 0 -i 7 -a 0 -x {5.0 0.0 2 ------- null}
h -t 1.28712 -s 2 -d 0 -p ack -e 40 -c 0 -i 7 -a 0 -x {5.0 0.0 -1 ------- null}
r -t 1.28928 -s 2 -d 0 -p ack -e 40 -c 0 -i 7 -a 0 -x {5.0 0.0 2 ------- null}
+ -t 1.28928 -s 0 -d 2 -p tcp -e 1040 -c 0 -i 8 -a 0 -x {0.0 5.0 5 ------- null}
- -t 1.28928 -s 0 -d 2 -p tcp -e 1040 -c 0 -i 8 -a 0 -x {0.0 5.0 5 ------- null}
h -t 1.28928 -s 0 -d 2 -p tcp -e 1040 -c 0 -i 8 -a 0 -x {0.0 5.0 -1 ------- null}
+ -t 1.28928 -s 0 -d 2 -p tcp -e 1040 -c 0 -i 9 -a 0 -x {0.0 5.0 6 ------- null}
- -t 1.29344 -s 0 -d 2 -p tcp -e 1040 -c 0 -i 9 -a 0 -x {0.0 5.0 6 ------- null}
h -t 1.29344 -s 0 -d 2 -p tcp -e 1040 -c 0 -i 9 -a 0 -x {0.0 5.0 -1 ------- null}
- -t 1.29544 -s 2 -d 3 -p tcp -e 1040 -c 0 -i 6 -a 0 -x {0.0 5.0 4 ------- null}
h -t 1.29544 -s 2 -d 3 -p tcp -e 1040 -c 0 -i 6 -a 0 -x {0.0 5.0 -1 ------- null}
r -t 1.29544 -s 0 -d 2 -p tcp -e 1040 -c 0 -i 8 -a 0 -x {0.0 5.0 5 ------- null}
+ -t 1.29544 -s 2 -d 3 -p tcp -e 1040 -c 0 -i 8 -a 0 -x {0.0 5.0 5 ------- null}
r -t 1.2996 -s 0 -d 2 -p tcp -e 1040 -c 0 -i 9 -a 0 -x {0.0 5.0 6 ------- null}
+ -t 1.2996 -s 2 -d 3 -p tcp -e 1040 -c 0 -i 9 -a 0 -x {0.0 5.0 6 ------- null}
r -t 1.30044 -s 2 -d 3 -p tcp -e 1040 -c 0 -i 5 -a 0 -x {0.0 5.0 3 ------- null}
+ -t 1.30044 -s 3 -d 5 -p tcp -e 1040 -c 0 -i 5 -a 0 -x {0.0 5.0 3 ------- null}
- -t 1.30044 -s 3 -d 5 -p tcp -e 1040 -c 0 -i 5 -a 0 -x {0.0 5.0 3 ------- null}
h -t 1.30044 -s 3 -d 5 -p tcp -e 1040 -c 0 -i 5 -a 0 -x {0.0 5.0 -1 ------- null}
r -t 1.3066 -s 3 -d 5 -p tcp -e 1040 -c 0 -i 5 -a 0 -x {0.0 5.0 3 ------- null}
+ -t 1.3066 -s 5 -d 3 -p ack -e 40 -c 0 -i 10 -a 0 -x {5.0 0.0 3 ------- null}
- -t 1.3066 -s 5 -d 3 -p ack -e 40 -c 0 -i 10 -a 0 -x {5.0 0.0 3 ------- null}
h -t 1.3066 -s 5 -d 3 -p ack -e 40 -c 0 -i 10 -a 0 -x {5.0 0.0 -1 ------- null}
r -t 1.30876 -s 5 -d 3 -p ack -e 40 -c 0 -i 10 -a 0 -x {5.0 0.0 3 ------- null}
+ -t 1.30876 -s 3 -d 2 -p ack -e 40 -c 0 -i 10 -a 0 -x {5.0 0.0 3 ------- null}
- -t 1.30876 -s 3 -d 2 -p ack -e 40 -c 0 -i 10 -a 0 -x {5.0 0.0 3 ------- null}
h -t 1.30876 -s 3 -d 2 -p ack -e 40 -c 0 -i 10 -a 0 -x {5.0 0.0 -1 ------- null}
r -t 1.31456 -s 3 -d 2 -p ack -e 40 -c 0 -i 10 -a 0 -x {5.0 0.0 3 ------- null}
+ -t 1.31456 -s 2 -d 0 -p ack -e 40 -c 0 -i 10 -a 0 -x {5.0 0.0 3 ------- null}
- -t 1.31456 -s 2 -d 0 -p ack -e 40 -c 0 -i 10 -a 0 -x {5.0 0.0 3 ------- null}
h -t 1.31456 -s 2 -d 0 -p ack -e 40 -c 0 -i 10 -a 0 -x {5.0 0.0 -1 ------- null}
- -t 1.31624 -s 2 -d 3 -p tcp -e 1040 -c 0 -i 8 -a 0 -x {0.0 5.0 5 ------- null}
h -t 1.31624 -s 2 -d 3 -p tcp -e 1040 -c 0 -i 8 -a 0 -x {0.0 5.0 -1 ------- null}
r -t 1.31672 -s 2 -d 0 -p ack -e 40 -c 0 -i 10 -a 0 -x {5.0 0.0 3 ------- null}
+ -t 1.31672 -s 0 -d 2 -p tcp -e 1040 -c 0 -i 11 -a 0 -x {0.0 5.0 7 ------- null}
- -t 1.31672 -s 0 -d 2 -p tcp -e 1040 -c 0 -i 11 -a 0 -x {0.0 5.0 7 ------- null}
h -t 1.31672 -s 0 -d 2 -p tcp -e 1040 -c 0 -i 11 -a 0 -x {0.0 5.0 -1 ------- null}
+ -t 1.31672 -s 0 -d 2 -p tcp -e 1040 -c 0 -i 12 -a 0 -x {0.0 5.0 8 ------- null}
- -t 1.32088 -s 0 -d 2 -p tcp -e 1040 -c 0 -i 12 -a 0 -x {0.0 5.0 8 ------- null}
h -t 1.32088 -s 0 -d 2 -p tcp -e 1040 -c 0 -i 12 -a 0 -x {0.0 5.0 -1 ------- null}
r -t 1.32124 -s 2 -d 3 -p tcp -e 1040 -c 0 -i 6 -a 0 -x {0.0 5.0 4 ------- null}
+ -t 1.32124 -s 3 -d 5 -p tcp -e 1040 -c 0 -i 6 -a 0 -x {0.0 5.0 4 ------- null}
- -t 1.32124 -s 3 -d 5 -p tcp -e 1040 -c 0 -i 6 -a 0 -x {0.0 5.0 4 ------- null}
h -t 1.32124 -s 3 -d 5 -p tcp -e 1040 -c 0 -i 6 -a 0 -x {0.0 5.0 -1 ------- null}
r -t 1.32288 -s 0 -d 2 -p tcp -e 1040 -c 0 -i 11 -a 0 -x {0.0 5.0 7 ------- null}
+ -t 1.32288 -s 2 -d 3 -p tcp -e 1040 -c 0 -i 11 -a 0 -x {0.0 5.0 7 ------- null}
r -t 1.32704 -s 0 -d 2 -p tcp -e 1040 -c 0 -i 12 -a 0 -x {0.0 5.0 8 ------- null}
+ -t 1.32704 -s 2 -d 3 -p tcp -e 1040 -c 0 -i 12 -a 0 -x {0.0 5.0 8 ------- null}
r -t 1.3274 -s 3 -d 5 -p tcp -e 1040 -c 0 -i 6 -a 0 -x {0.0 5.0 4 ------- null}
+ -t 1.3274 -s 5 -d 3 -p ack -e 40 -c 0 -i 13 -a 0 -x {5.0 0.0 4 ------- null}
- -t 1.3274 -s 5 -d 3 -p ack -e 40 -c 0 -i 13 -a 0 -x {5.0 0.0 4 ------- null}
h -t 1.3274 -s 5 -d 3 -p ack -e 40 -c 0 -i 13 -a 0 -x {5.0 0.0 -1 ------- null}
r -t 1.32956 -s 5 -d 3 -p ack -e 40 -c 0 -i 13 -a 0 -x {5.0 0.0 4 ------- null}
+ -t 1.32956 -s 3 -d 2 -p ack -e 40 -c 0 -i 13 -a 0 -x {5.0 0.0 4 ------- null}
- -t 1.32956 -s 3 -d 2 -p ack -e 40 -c 0 -i 13 -a 0 -x {5.0 0.0 4 ------- null}
h -t 1.32956 -s 3 -d 2 -p ack -e 40 -c 0 -i 13 -a 0 -x {5.0 0.0 -1 ------- null}
r -t 1.33536 -s 3 -d 2 -p ack -e 40 -c 0 -i 13 -a 0 -x {5.0 0.0 4 ------- null}
+ -t 1.33536 -s 2 -d 0 -p ack -e 40 -c 0 -i 13 -a 0 -x {5.0 0.0 4 ------- null}
- -t 1.33536 -s 2 -d 0 -p ack -e 40 -c 0 -i 13 -a 0 -x {5.0 0.0 4 ------- null}
h -t 1.33536 -s 2 -d 0 -p ack -e 40 -c 0 -i 13 -a 0 -x {5.0 0.0 -1 ------- null}
- -t 1.33704 -s 2 -d 3 -p tcp -e 1040 -c 0 -i 9 -a 0 -x {0.0 5.0 6 ------- null}
h -t 1.33704 -s 2 -d 3 -p tcp -e 1040 -c 0 -i 9 -a 0 -x {0.0 5.0 -1 ------- null}
r -t 1.33752 -s 2 -d 0 -p ack -e 40 -c 0 -i 13 -a 0 -x {5.0 0.0 4 ------- null}
+ -t 1.33752 -s 0 -d 2 -p tcp -e 1040 -c 0 -i 14 -a 0 -x {0.0 5.0 9 ------- null}
- -t 1.33752 -s 0 -d 2 -p tcp -e 1040 -c 0 -i 14 -a 0 -x {0.0 5.0 9 ------- null}
h -t 1.33752 -s 0 -d 2 -p tcp -e 1040 -c 0 -i 14 -a 0 -x {0.0 5.0 -1 ------- null}
+ -t 1.33752 -s 0 -d 2 -p tcp -e 1040 -c 0 -i 15 -a 0 -x {0.0 5.0 10 ------- null}
- -t 1.34168 -s 0 -d 2 -p tcp -e 1040 -c 0 -i 15 -a 0 -x {0.0 5.0 10 ------- null}
h -t 1.34168 -s 0 -d 2 -p tcp -e 1040 -c 0 -i 15 -a 0 -x {0.0 5.0 -1 ------- null}
r -t 1.34204 -s 2 -d 3 -p tcp -e 1040 -c 0 -i 8 -a 0 -x {0.0 5.0 5 ------- null}
+ -t 1.34204 -s 3 -d 5 -p tcp -e 1040 -c 0 -i 8 -a 0 -x {0.0 5.0 5 ------- null}
- -t 1.34204 -s 3 -d 5 -p tcp -e 1040 -c 0 -i 8 -a 0 -x {0.0 5.0 5 ------- null}
h -t 1.34204 -s 3 -d 5 -p tcp -e 1040 -c 0 -i 8 -a 0 -x {0.0 5.0 -1 ------- null}
r -t 1.34368 -s 0 -d 2 -p tcp -e 1040 -c 0 -i 14 -a 0 -x {0.0 5.0 9 ------- null}
+ -t 1.34368 -s 2 -d 3 -p tcp -e 1040 -c 0 -i 14 -a 0 -x {0.0 5.0 9 ------- null}
r -t 1.34784 -s 0 -d 2 -p tcp -e 1040 -c 0 -i 15 -a 0 -x {0.0 5.0 10 ------- null}
+ -t 1.34784 -s 2 -d 3 -p tcp -e 1040 -c 0 -i 15 -a 0 -x {0.0 5.0 10 ------- null}
r -t 1.3482 -s 3 -d 5 -p tcp -e 1040 -c 0 -i 8 -a 0 -x {0.0 5.0 5 ------- null}
+ -t 1.3482 -s 5 -d 3 -p ack -e 40 -c 0 -i 16 -a 0 -x {5.0 0.0 5 ------- null}
- -t 1.3482 -s 5 -d 3 -p ack -e 40 -c 0 -i 16 -a 0 -x {5.0 0.0 5 ------- null}
h -t 1.3482 -s 5 -d 3 -p ack -e 40 -c 0 -i 16 -a 0 -x {5.0 0.0 -1 ------- null}
r -t 1.35036 -s 5 -d 3 -p ack -e 40 -c 0 -i 16 -a 0 -x {5.0 0.0 5 ------- null}
+ -t 1.35036 -s 3 -d 2 -p ack -e 40 -c 0 -i 16 -a 0 -x {5.0 0.0 5 ------- null}
- -t 1.35036 -s 3 -d 2 -p ack -e 40 -c 0 -i 16 -a 0 -x {5.0 0.0 5 ------- null}
h -t 1.35036 -s 3 -d 2 -p ack -e 40 -c 0 -i 16 -a 0 -x {5.0 0.0 -1 ------- null}
r -t 1.35616 -s 3 -d 2 -p ack -e 40 -c 0 -i 16 -a 0 -x {5.0 0.0 5 ------- null}
+ -t 1.35616 -s 2 -d 0 -p ack -e 40 -c 0 -i 16 -a 0 -x {5.0 0.0 5 ------- null}
- -t 1.35616 -s 2 -d 0 -p ack -e 40 -c 0 -i 16 -a 0 -x {5.0 0.0 5 ------- null}
h -t 1.35616 -s 2 -d 0 -p ack -e 40 -c 0 -i 16 -a 0 -x {5.0 0.0 -1 ------- null}
- -t 1.35784 -s 2 -d 3 -p tcp -e 1040 -c 0 -i 11 -a 0 -x {0.0 5.0 7 ------- null}
h -t 1.35784 -s 2 -d 3 -p tcp -e 1040 -c 0 -i 11 -a 0 -x {0.0 5.0 -1 ------- null}
r -t 1.35832 -s 2 -d 0 -p ack -e 40 -c 0 -i 16 -a 0 -x {5.0 0.0 5 ------- null}
+ -t 1.35832 -s 0 -d 2 -p tcp -e 1040 -c 0 -i 17 -a 0 -x {0.0 5.0 11 ------- null}
- -t 1.35832 -s 0 -d 2 -p tcp -e 1040 -c 0 -i 17 -a 0 -x {0.0 5.0 11 ------- null}
h -t 1.35832 -s 0 -d 2 -p tcp -e 1040 -c 0 -i 17 -a 0 -x {0.0 5.0 -1 ------- null}
+ -t 1.35832 -s 0 -d 2 -p tcp -e 1040 -c 0 -i 18 -a 0 -x {0.0 5.0 12 ------- null}
- -t 1.36248 -s 0 -d 2 -p tcp -e 1040 -c 0 -i 18 -a 0 -x {0.0 5.0 12 ------- null}
h -t 1.36248 -s 0 -d 2 -p tcp -e 1040 -c 0 -i 18 -a 0 -x {0.0 5.0 -1 ------- null}
r -t 1.36284 -s 2 -d 3 -p tcp -e 1040 -c 0 -i 9 -a 0 -x {0.0 5.0 6 ------- null}
+ -t 1.36284 -s 3 -d 5 -p tcp -e 1040 -c 0 -i 9 -a 0 -x {0.0 5.0 6 ------- null}
- -t 1.36284 -s 3 -d 5 -p tcp -e 1040 -c 0 -i 9 -a 0 -x {0.0 5.0 6 ------- null}
h -t 1.36284 -s 3 -d 5 -p tcp -e 1040 -c 0 -i 9 -a 0 -x {0.0 5.0 -1 ------- null}
r -t 1.36448 -s 0 -d 2 -p tcp -e 1040 -c 0 -i 17 -a 0 -x {0.0 5.0 11 ------- null}
+ -t 1.36448 -s 2 -d 3 -p tcp -e 1040 -c 0 -i 17 -a 0 -x {0.0 5.0 11 ------- null}
r -t 1.36864 -s 0 -d 2 -p tcp -e 1040 -c 0 -i 18 -a 0 -x {0.0 5.0 12 ------- null}
+ -t 1.36864 -s 2 -d 3 -p tcp -e 1040 -c 0 -i 18 -a 0 -x {0.0 5.0 12 ------- null}
r -t 1.369 -s 3 -d 5 -p tcp -e 1040 -c 0 -i 9 -a 0 -x {0.0 5.0 6 ------- null}
+ -t 1.369 -s 5 -d 3 -p ack -e 40 -c 0 -i 19 -a 0 -x {5.0 0.0 6 ------- null}
- -t 1.369 -s 5 -d 3 -p ack -e 40 -c 0 -i 19 -a 0 -x {5.0 0.0 6 ------- null}
h -t 1.369 -s 5 -d 3 -p ack -e 40 -c 0 -i 19 -a 0 -x {5.0 0.0 -1 ------- null}
r -t 1.37116 -s 5 -d 3 -p ack -e 40 -c 0 -i 19 -a 0 -x {5.0 0.0 6 ------- null}
+ -t 1.37116 -s 3 -d 2 -p ack -e 40 -c 0 -i 19 -a 0 -x {5.0 0.0 6 ------- null}
- -t 1.37116 -s 3 -d 2 -p ack -e 40 -c 0 -i 19 -a 0 -x {5.0 0.0 6 ------- null}
h -t 1.37116 -s 3 -d 2 -p ack -e 40 -c 0 -i 19 -a 0 -x {5.0 0.0 -1 ------- null}
r -t 1.37696 -s 3 -d 2 -p ack -e 40 -c 0 -i 19 -a 0 -x {5.0 0.0 6 ------- null}
+ -t 1.37696 -s 2 -d 0 -p ack -e 40 -c 0 -i 19 -a 0 -x {5.0 0.0 6 ------- null}
- -t 1.37696 -s 2 -d 0 -p ack -e 40 -c 0 -i 19 -a 0 -x {5.0 0.0 6 ------- null}
h -t 1.37696 -s 2 -d 0 -p ack -e 40 -c 0 -i 19 -a 0 -x {5.0 0.0 -1 ------- null}
- -t 1.37864 -s 2 -d 3 -p tcp -e 1040 -c 0 -i 12 -a 0 -x {0.0 5.0 8 ------- null}
h -t 1.37864 -s 2 -d 3 -p tcp -e 1040 -c 0 -i 12 -a 0 -x {0.0 5.0 -1 ------- null}
r -t 1.37912 -s 2 -d 0 -p ack -e 40 -c 0 -i 19 -a 0 -x {5.0 0.0 6 ------- null}
+ -t 1.37912 -s 0 -d 2 -p tcp -e 1040 -c 0 -i 20 -a 0 -x {0.0 5.0 13 ------- null}
- -t 1.37912 -s 0 -d 2 -p tcp -e 1040 -c 0 -i 20 -a 0 -x {0.0 5.0 13 ------- null}
h -t 1.37912 -s 0 -d 2 -p tcp -e 1040 -c 0 -i 20 -a 0 -x {0.0 5.0 -1 ------- null}
+ -t 1.37912 -s 0 -d 2 -p tcp -e 1040 -c 0 -i 21 -a 0 -x {0.0 5.0 14 ------- null}
- -t 1.38328 -s 0 -d 2 -p tcp -e 1040 -c 0 -i 21 -a 0 -x {0.0 5.0 14 ------- null}
h -t 1.38328 -s 0 -d 2 -p tcp -e 1040 -c 0 -i 21 -a 0 -x {0.0 5.0 -1 ------- null}
r -t 1.38364 -s 2 -d 3 -p tcp -e 1040 -c 0 -i 11 -a 0 -x {0.0 5.0 7 ------- null}
+ -t 1.38364 -s 3 -d 5 -p tcp -e 1040 -c 0 -i 11 -a 0 -x {0.0 5.0 7 ------- null}
- -t 1.38364 -s 3 -d 5 -p tcp -e 1040 -c 0 -i 11 -a 0 -x {0.0 5.0 7 ------- null}
h -t 1.38364 -s 3 -d 5 -p tcp -e 1040 -c 0 -i 11 -a 0 -x {0.0 5.0 -1 ------- null}
r -t 1.38528 -s 0 -d 2 -p tcp -e 1040 -c 0 -i 20 -a 0 -x {0.0 5.0 13 ------- null}
+ -t 1.38528 -s 2 -d 3 -p tcp -e 1040 -c 0 -i 20 -a 0 -x {0.0 5.0 13 ------- null}
r -t 1.38944 -s 0 -d 2 -p tcp -e 1040 -c 0 -i 21 -a 0 -x {0.0 5.0 14 ------- null}
+ -t 1.38944 -s 2 -d 3 -p tcp -e 1040 -c 0 -i 21 -a 0 -x {0.0 5.0 14 ------- null}
r -t 1.3898 -s 3 -d 5 -p tcp -e 1040 -c 0 -i 11 -a 0 -x {0.0 5.0 7 ------- null}
+ -t 1.3898 -s 5 -d 3 -p ack -e 40 -c 0 -i 22 -a 0 -x {5.0 0.0 7 ------- null}
- -t 1.3898 -s 5 -d 3 -p ack -e 40 -c 0 -i 22 -a 0 -x {5.0 0.0 7 ------- null}
h -t 1.3898 -s 5 -d 3 -p ack -e 40 -c 0 -i 22 -a 0 -x {5.0 0.0 -1 ------- null}
r -t 1.39196 -s 5 -d 3 -p ack -e 40 -c 0 -i 22 -a 0 -x {5.0 0.0 7 ------- null}
+ -t 1.39196 -s 3 -d 2 -p ack -e 40 -c 0 -i 22 -a 0 -x {5.0 0.0 7 ------- null}
- -t 1.39196 -s 3 -d 2 -p ack -e 40 -c 0 -i 22 -a 0 -x {5.0 0.0 7 ------- null}
h -t 1.39196 -s 3 -d 2 -p ack -e 40 -c 0 -i 22 -a 0 -x {5.0 0.0 -1 ------- null}
r -t 1.39776 -s 3 -d 2 -p ack -e 40 -c 0 -i 22 -a 0 -x {5.0 0.0 7 ------- null}
+ -t 1.39776 -s 2 -d 0 -p ack -e 40 -c 0 -i 22 -a 0 -x {5.0 0.0 7 ------- null}
- -t 1.39776 -s 2 -d 0 -p ack -e 40 -c 0 -i 22 -a 0 -x {5.0 0.0 7 ------- null}
h -t 1.39776 -s 2 -d 0 -p ack -e 40 -c 0 -i 22 -a 0 -x {5.0 0.0 -1 ------- null}
- -t 1.39944 -s 2 -d 3 -p tcp -e 1040 -c 0 -i 14 -a 0 -x {0.0 5.0 9 ------- null}
h -t 1.39944 -s 2 -d 3 -p tcp -e 1040 -c 0 -i 14 -a 0 -x {0.0 5.0 -1 ------- null}
r -t 1.39992 -s 2 -d 0 -p ack -e 40 -c 0 -i 22 -a 0 -x {5.0 0.0 7 ------- null}
+ -t 1.39992 -s 0 -d 2 -p tcp -e 1040 -c 0 -i 23 -a 0 -x {0.0 5.0 15 ------- null}
- -t 1.39992 -s 0 -d 2 -p tcp -e 1040 -c 0 -i 23 -a 0 -x {0.0 5.0 15 ------- null}
h -t 1.39992 -s 0 -d 2 -p tcp -e 1040 -c 0 -i 23 -a 0 -x {0.0 5.0 -1 ------- null}
+ -t 1.39992 -s 0 -d 2 -p tcp -e 1040 -c 0 -i 24 -a 0 -x {0.0 5.0 16 ------- null}
- -t 1.40408 -s 0 -d 2 -p tcp -e 1040 -c 0 -i 24 -a 0 -x {0.0 5.0 16 ------- null}
h -t 1.40408 -s 0 -d 2 -p tcp -e 1040 -c 0 -i 24 -a 0 -x {0.0 5.0 -1 ------- null}
r -t 1.40444 -s 2 -d 3 -p tcp -e 1040 -c 0 -i 12 -a 0 -x {0.0 5.0 8 ------- null}
+ -t 1.40444 -s 3 -d 5 -p tcp -e 1040 -c 0 -i 12 -a 0 -x {0.0 5.0 8 ------- null}
- -t 1.40444 -s 3 -d 5 -p tcp -e 1040 -c 0 -i 12 -a 0 -x {0.0 5.0 8 ------- null}
h -t 1.40444 -s 3 -d 5 -p tcp -e 1040 -c 0 -i 12 -a 0 -x {0.0 5.0 -1 ------- null}
r -t 1.40608 -s 0 -d 2 -p tcp -e 1040 -c 0 -i 23 -a 0 -x {0.0 5.0 15 ------- null}
+ -t 1.40608 -s 2 -d 3 -p tcp -e 1040 -c 0 -i 23 -a 0 -x {0.0 5.0 15 ------- null}
r -t 1.41024 -s 0 -d 2 -p tcp -e 1040 -c 0 -i 24 -a 0 -x {0.0 5.0 16 ------- null}
+ -t 1.41024 -s 2 -d 3 -p tcp -e 1040 -c 0 -i 24 -a 0 -x {0.0 5.0 16 ------- null}
r -t 1.4106 -s 3 -d 5 -p tcp -e 1040 -c 0 -i 12 -a 0 -x {0.0 5.0 8 ------- null}
+ -t 1.4106 -s 5 -d 3 -p ack -e 40 -c 0 -i 25 -a 0 -x {5.0 0.0 8 ------- null}
- -t 1.4106 -s 5 -d 3 -p ack -e 40 -c 0 -i 25 -a 0 -x {5.0 0.0 8 ------- null}
h -t 1.4106 -s 5 -d 3 -p ack -e 40 -c 0 -i 25 -a 0 -x {5.0 0.0 -1 ------- null}
r -t 1.41276 -s 5 -d 3 -p ack -e 40 -c 0 -i 25 -a 0 -x {5.0 0.0 8 ------- null}
+ -t 1.41276 -s 3 -d 2 -p ack -e 40 -c 0 -i 25 -a 0 -x {5.0 0.0 8 ------- null}
- -t 1.41276 -s 3 -d 2 -p ack -e 40 -c 0 -i 25 -a 0 -x {5.0 0.0 8 ------- null}
h -t 1.41276 -s 3 -d 2 -p ack -e 40 -c 0 -i 25 -a 0 -x {5.0 0.0 -1 ------- null}
r -t 1.41856 -s 3 -d 2 -p ack -e 40 -c 0 -i 25 -a 0 -x {5.0 0.0 8 ------- null}
+ -t 1.41856 -s 2 -d 0 -p ack -e 40 -c 0 -i 25 -a 0 -x {5.0 0.0 8 ------- null}
- -t 1.41856 -s 2 -d 0 -p ack -e 40 -c 0 -i 25 -a 0 -x {5.0 0.0 8 ------- null}
h -t 1.41856 -s 2 -d 0 -p ack -e 40 -c 0 -i 25 -a 0 -x {5.0 0.0 -1 ------- null}
- -t 1.42024 -s 2 -d 3 -p tcp -e 1040 -c 0 -i 15 -a 0 -x {0.0 5.0 10 ------- null}
h -t 1.42024 -s 2 -d 3 -p tcp -e 1040 -c 0 -i 15 -a 0 -x {0.0 5.0 -1 ------- null}
r -t 1.42072 -s 2 -d 0 -p ack -e 40 -c 0 -i 25 -a 0 -x {5.0 0.0 8 ------- null}
+ -t 1.42072 -s 0 -d 2 -p tcp -e 1040 -c 0 -i 26 -a 0 -x {0.0 5.0 17 ------- null}
- -t 1.42072 -s 0 -d 2 -p tcp -e 1040 -c 0 -i 26 -a 0 -x {0.0 5.0 17 ------- null}
h -t 1.42072 -s 0 -d 2 -p tcp -e 1040 -c 0 -i 26 -a 0 -x {0.0 5.0 -1 ------- null}
+ -t 1.42072 -s 0 -d 2 -p tcp -e 1040 -c 0 -i 27 -a 0 -x {0.0 5.0 18 ------- null}
- -t 1.42488 -s 0 -d 2 -p tcp -e 1040 -c 0 -i 27 -a 0 -x {0.0 5.0 18 ------- null}
h -t 1.42488 -s 0 -d 2 -p tcp -e 1040 -c 0 -i 27 -a 0 -x {0.0 5.0 -1 ------- null}
r -t 1.42524 -s 2 -d 3 -p tcp -e 1040 -c 0 -i 14 -a 0 -x {0.0 5.0 9 ------- null}
+ -t 1.42524 -s 3 -d 5 -p tcp -e 1040 -c 0 -i 14 -a 0 -x {0.0 5.0 9 ------- null}
- -t 1.42524 -s 3 -d 5 -p tcp -e 1040 -c 0 -i 14 -a 0 -x {0.0 5.0 9 ------- null}
h -t 1.42524 -s 3 -d 5 -p tcp -e 1040 -c 0 -i 14 -a 0 -x {0.0 5.0 -1 ------- null}
r -t 1.42688 -s 0 -d 2 -p tcp -e 1040 -c 0 -i 26 -a 0 -x {0.0 5.0 17 ------- null}
+ -t 1.42688 -s 2 -d 3 -p tcp -e 1040 -c 0 -i 26 -a 0 -x {0.0 5.0 17 ------- null}
r -t 1.43104 -s 0 -d 2 -p tcp -e 1040 -c 0 -i 27 -a 0 -x {0.0 5.0 18 ------- null}
+ -t 1.43104 -s 2 -d 3 -p tcp -e 1040 -c 0 -i 27 -a 0 -x {0.0 5.0 18 ------- null}
r -t 1.4314 -s 3 -d 5 -p tcp -e 1040 -c 0 -i 14 -a 0 -x {0.0 5.0 9 ------- null}
+ -t 1.4314 -s 5 -d 3 -p ack -e 40 -c 0 -i 28 -a 0 -x {5.0 0.0 9 ------- null}
- -t 1.4314 -s 5 -d 3 -p ack -e 40 -c 0 -i 28 -a 0 -x {5.0 0.0 9 ------- null}
h -t 1.4314 -s 5 -d 3 -p ack -e 40 -c 0 -i 28 -a 0 -x {5.0 0.0 -1 ------- null}
r -t 1.43356 -s 5 -d 3 -p ack -e 40 -c 0 -i 28 -a 0 -x {5.0 0.0 9 ------- null}
+ -t 1.43356 -s 3 -d 2 -p ack -e 40 -c 0 -i 28 -a 0 -x {5.0 0.0 9 ------- null}
- -t 1.43356 -s 3 -d 2 -p ack -e 40 -c 0 -i 28 -a 0 -x {5.0 0.0 9 ------- null}
h -t 1.43356 -s 3 -d 2 -p ack -e 40 -c 0 -i 28 -a 0 -x {5.0 0.0 -1 ------- null}
r -t 1.43936 -s 3 -d 2 -p ack -e 40 -c 0 -i 28 -a 0 -x {5.0 0.0 9 ------- null}
+ -t 1.43936 -s 2 -d 0 -p ack -e 40 -c 0 -i 28 -a 0 -x {5.0 0.0 9 ------- null}
- -t 1.43936 -s 2 -d 0 -p ack -e 40 -c 0 -i 28 -a 0 -x {5.0 0.0 9 ------- null}
h -t 1.43936 -s 2 -d 0 -p ack -e 40 -c 0 -i 28 -a 0 -x {5.0 0.0 -1 ------- null}
- -t 1.44104 -s 2 -d 3 -p tcp -e 1040 -c 0 -i 17 -a 0 -x {0.0 5.0 11 ------- null}
h -t 1.44104 -s 2 -d 3 -p tcp -e 1040 -c 0 -i 17 -a 0 -x {0.0 5.0 -1 ------- null}
r -t 1.44152 -s 2 -d 0 -p ack -e 40 -c 0 -i 28 -a 0 -x {5.0 0.0 9 ------- null}
+ -t 1.44152 -s 0 -d 2 -p tcp -e 1040 -c 0 -i 29 -a 0 -x {0.0 5.0 19 ------- null}
- -t 1.44152 -s 0 -d 2 -p tcp -e 1040 -c 0 -i 29 -a 0 -x {0.0 5.0 19 ------- null}
h -t 1.44152 -s 0 -d 2 -p tcp -e 1040 -c 0 -i 29 -a 0 -x {0.0 5.0 -1 ------- null}
+ -t 1.44152 -s 0 -d 2 -p tcp -e 1040 -c 0 -i 30 -a 0 -x {0.0 5.0 20 ------- null}
- -t 1.44568 -s 0 -d 2 -p tcp -e 1040 -c 0 -i 30 -a 0 -x {0.0 5.0 20 ------- null}
h -t 1.44568 -s 0 -d 2 -p tcp -e 1040 -c 0 -i 30 -a 0 -x {0.0 5.0 -1 ------- null}
r -t 1.44604 -s 2 -d 3 -p tcp -e 1040 -c 0 -i 15 -a 0 -x {0.0 5.0 10 ------- null}
+ -t 1.44604 -s 3 -d 5 -p tcp -e 1040 -c 0 -i 15 -a 0 -x {0.0 5.0 10 ------- null}
- -t 1.44604 -s 3 -d 5 -p tcp -e 1040 -c 0 -i 15 -a 0 -x {0.0 5.0 10 ------- null}
h -t 1.44604 -s 3 -d 5 -p tcp -e 1040 -c 0 -i 15 -a 0 -x {0.0 5.0 -1 ------- null}
r -t 1.44768 -s 0 -d 2 -p tcp -e 1040 -c 0 -i 29 -a 0 -x {0.0 5.0 19 ------- null}
+ -t 1.44768 -s 2 -d 3 -p tcp -e 1040 -c 0 -i 29 -a 0 -x {0.0 5.0 19 ------- null}
r -t 1.45184 -s 0 -d 2 -p tcp -e 1040 -c 0 -i 30 -a 0 -x {0.0 5.0 20 ------- null}
+ -t 1.45184 -s 2 -d 3 -p tcp -e 1040 -c 0 -i 30 -a 0 -x {0.0 5.0 20 ------- null}
r -t 1.4522 -s 3 -d 5 -p tcp -e 1040 -c 0 -i 15 -a 0 -x {0.0 5.0 10 ------- null}
+ -t 1.4522 -s 5 -d 3 -p ack -e 40 -c 0 -i 31 -a 0 -x {5.0 0.0 10 ------- null}
- -t 1.4522 -s 5 -d 3 -p ack -e 40 -c 0 -i 31 -a 0 -x {5.0 0.0 10 ------- null}
h -t 1.4522 -s 5 -d 3 -p ack -e 40 -c 0 -i 31 -a 0 -x {5.0 0.0 -1 ------- null}
r -t 1.45436 -s 5 -d 3 -p ack -e 40 -c 0 -i 31 -a 0 -x {5.0 0.0 10 ------- null}
+ -t 1.45436 -s 3 -d 2 -p ack -e 40 -c 0 -i 31 -a 0 -x {5.0 0.0 10 ------- null}
- -t 1.45436 -s 3 -d 2 -p ack -e 40 -c 0 -i 31 -a 0 -x {5.0 0.0 10 ------- null}
h -t 1.45436 -s 3 -d 2 -p ack -e 40 -c 0 -i 31 -a 0 -x {5.0 0.0 -1 ------- null}
r -t 1.46016 -s 3 -d 2 -p ack -e 40 -c 0 -i 31 -a 0 -x {5.0 0.0 10 ------- null}
+ -t 1.46016 -s 2 -d 0 -p ack -e 40 -c 0 -i 31 -a 0 -x {5.0 0.0 10 ------- null}
- -t 1.46016 -s 2 -d 0 -p ack -e 40 -c 0 -i 31 -a 0 -x {5.0 0.0 10 ------- null}
h -t 1.46016 -s 2 -d 0 -p ack -e 40 -c 0 -i 31 -a 0 -x {5.0 0.0 -1 ------- null}
- -t 1.46184 -s 2 -d 3 -p tcp -e 1040 -c 0 -i 18 -a 0 -x {0.0 5.0 12 ------- null}
h -t 1.46184 -s 2 -d 3 -p tcp -e 1040 -c 0 -i 18 -a 0 -x {0.0 5.0 -1 ------- null}
r -t 1.46232 -s 2 -d 0 -p ack -e 40 -c 0 -i 31 -a 0 -x {5.0 0.0 10 ------- null}
+ -t 1.46232 -s 0 -d 2 -p tcp -e 1040 -c 0 -i 32 -a 0 -x {0.0 5.0 21 ------- null}
- -t 1.46232 -s 0 -d 2 -p tcp -e 1040 -c 0 -i 32 -a 0 -x {0.0 5.0 21 ------- null}
h -t 1.46232 -s 0 -d 2 -p tcp -e 1040 -c 0 -i 32 -a 0 -x {0.0 5.0 -1 ------- null}
+ -t 1.46232 -s 0 -d 2 -p tcp -e 1040 -c 0 -i 33 -a 0 -x {0.0 5.0 22 ------- null}
- -t 1.46648 -s 0 -d 2 -p tcp -e 1040 -c 0 -i 33 -a 0 -x {0.0 5.0 22 ------- null}
h -t 1.46648 -s 0 -d 2 -p tcp -e 1040 -c 0 -i 33 -a 0 -x {0.0 5.0 -1 ------- null}
r -t 1.46684 -s 2 -d 3 -p tcp -e 1040 -c 0 -i 17 -a 0 -x {0.0 5.0 11 ------- null}
+ -t 1.46684 -s 3 -d 5 -p tcp -e 1040 -c 0 -i 17 -a 0 -x {0.0 5.0 11 ------- null}
- -t 1.46684 -s 3 -d 5 -p tcp -e 1040 -c 0 -i 17 -a 0 -x {0.0 5.0 11 ------- null}
h -t 1.46684 -s 3 -d 5 -p tcp -e 1040 -c 0 -i 17 -a 0 -x {0.0 5.0 -1 ------- null}
r -t 1.46848 -s 0 -d 2 -p tcp -e 1040 -c 0 -i 32 -a 0 -x {0.0 5.0 21 ------- null}
+ -t 1.46848 -s 2 -d 3 -p tcp -e 1040 -c 0 -i 32 -a 0 -x {0.0 5.0 21 ------- null}
r -t 1.47264 -s 0 -d 2 -p tcp -e 1040 -c 0 -i 33 -a 0 -x {0.0 5.0 22 ------- null}
+ -t 1.47264 -s 2 -d 3 -p tcp -e 1040 -c 0 -i 33 -a 0 -x {0.0 5.0 22 ------- null}
d -t 1.47264 -s 2 -d 3 -p tcp -e 1040 -c 0 -i 33 -a 0 -x {0.0 5.0 22 ------- null}
r -t 1.473 -s 3 -d 5 -p tcp -e 1040 -c 0 -i 17 -a 0 -x {0.0 5.0 11 ------- null}
+ -t 1.473 -s 5 -d 3 -p ack -e 40 -c 0 -i 34 -a 0 -x {5.0 0.0 11 ------- null}
- -t 1.473 -s 5 -d 3 -p ack -e 40 -c 0 -i 34 -a 0 -x {5.0 0.0 11 ------- null}
h -t 1.473 -s 5 -d 3 -p ack -e 40 -c 0 -i 34 -a 0 -x {5.0 0.0 -1 ------- null}
r -t 1.47516 -s 5 -d 3 -p ack -e 40 -c 0 -i 34 -a 0 -x {5.0 0.0 11 ------- null}
+ -t 1.47516 -s 3 -d 2 -p ack -e 40 -c 0 -i 34 -a 0 -x {5.0 0.0 11 ------- null}
- -t 1.47516 -s 3 -d 2 -p ack -e 40 -c 0 -i 34 -a 0 -x {5.0 0.0 11 ------- null}
h -t 1.47516 -s 3 -d 2 -p ack -e 40 -c 0 -i 34 -a 0 -x {5.0 0.0 -1 ------- null}
r -t 1.48096 -s 3 -d 2 -p ack -e 40 -c 0 -i 34 -a 0 -x {5.0 0.0 11 ------- null}
+ -t 1.48096 -s 2 -d 0 -p ack -e 40 -c 0 -i 34 -a 0 -x {5.0 0.0 11 ------- null}
- -t 1.48096 -s 2 -d 0 -p ack -e 40 -c 0 -i 34 -a 0 -x {5.0 0.0 11 ------- null}
h -t 1.48096 -s 2 -d 0 -p ack -e 40 -c 0 -i 34 -a 0 -x {5.0 0.0 -1 ------- null}
- -t 1.48264 -s 2 -d 3 -p tcp -e 1040 -c 0 -i 20 -a 0 -x {0.0 5.0 13 ------- null}
h -t 1.48264 -s 2 -d 3 -p tcp -e 1040 -c 0 -i 20 -a 0 -x {0.0 5.0 -1 ------- null}
r -t 1.48312 -s 2 -d 0 -p ack -e 40 -c 0 -i 34 -a 0 -x {5.0 0.0 11 ------- null}
+ -t 1.48312 -s 0 -d 2 -p tcp -e 1040 -c 0 -i 35 -a 0 -x {0.0 5.0 23 ------- null}
- -t 1.48312 -s 0 -d 2 -p tcp -e 1040 -c 0 -i 35 -a 0 -x {0.0 5.0 23 ------- null}
h -t 1.48312 -s 0 -d 2 -p tcp -e 1040 -c 0 -i 35 -a 0 -x {0.0 5.0 -1 ------- null}
+ -t 1.48312 -s 0 -d 2 -p tcp -e 1040 -c 0 -i 36 -a 0 -x {0.0 5.0 24 ------- null}
- -t 1.48728 -s 0 -d 2 -p tcp -e 1040 -c 0 -i 36 -a 0 -x {0.0 5.0 24 ------- null}
h -t 1.48728 -s 0 -d 2 -p tcp -e 1040 -c 0 -i 36 -a 0 -x {0.0 5.0 -1 ------- null}
r -t 1.48764 -s 2 -d 3 -p tcp -e 1040 -c 0 -i 18 -a 0 -x {0.0 5.0 12 ------- null}
+ -t 1.48764 -s 3 -d 5 -p tcp -e 1040 -c 0 -i 18 -a 0 -x {0.0 5.0 12 ------- null}
- -t 1.48764 -s 3 -d 5 -p tcp -e 1040 -c 0 -i 18 -a 0 -x {0.0 5.0 12 ------- null}
h -t 1.48764 -s 3 -d 5 -p tcp -e 1040 -c 0 -i 18 -a 0 -x {0.0 5.0 -1 ------- null}
r -t 1.48928 -s 0 -d 2 -p tcp -e 1040 -c 0 -i 35 -a 0 -x {0.0 5.0 23 ------- null}
+ -t 1.48928 -s 2 -d 3 -p tcp -e 1040 -c 0 -i 35 -a 0 -x {0.0 5.0 23 ------- null}
r -t 1.49344 -s 0 -d 2 -p tcp -e 1040 -c 0 -i 36 -a 0 -x {0.0 5.0 24 ------- null}