+ 1.2 0 2 tcp 40 ------- 0 0.0 5.0 0 0
- 1.2 0 2 tcp 40 ------- 0 0.0 5.0 0 0
r 1.20216 0 2 tcp 40 ------- 0 0.0 5.0 0 0
+ 1.20216 2 3 tcp 40 ------- 0 0.0 5.0 0 0
- 1.20216 2 3 tcp 40 ------- 0 0.0 5.0 0 0
r 1.20796 2 3 tcp 40 ------- 0 0.0 5.0 0 0
+ 1.20796 3 5 tcp 40 ------- 0 0.0 5.0 0 0
- 1.20796 3 5 tcp 40 ------- 0 0.0 5.0 0 0
r 1.21012 3 5 tcp 40 ------- 0 0.0 5.0 0 0
+ 1.21012 5 3 ack 40 ------- 0 5.0 0.0 0 1
- 1.21012 5 3 ack 40 ------- 0 5.0 0.0 0 1
r 1.21228 5 3 ack 40 ------- 0 5.0 0.0 0 1
+ 1.21228 3 2 ack 40 ------- 0 5.0 0.0 0 1
- 1.21228 3 2 ack 40 ------- 0 5.0 0.0 0 1
r 1.21808 3 2 ack 40 ------- 0 5.0 0.0 0 1
+ 1.21808 2 0 ack 40 ------- 0 5.0 0.0 0 1
- 1.21808 2 0 ack 40 ------- 0 5.0 0.0 0 1
r 1.22024 2 0 ack 40 ------- 0 5.0 0.0 0 1
+ 1.22024 0 2 tcp 1040 ------- 0 0.0 5.0 1 2
- 1.22024 0 2 tcp 1040 ------- 0 0.0 5.0 1 2
+ 1.22024 0 2 tcp 1040 ------- 0 0.0 5.0 2 3
- 1.2244 0 2 tcp 1040 ------- 0 0.0 5.0 2 3
r 1.2264 0 2 tcp 1040 ------- 0 0.0 5.0 1 2
+ 1.2264 2 3 tcp 1040 ------- 0 0.0 5.0 1 2
- 1.2264 2 3 tcp 1040 ------- 0 0.0 5.0 1 2
r 1.23056 0 2 tcp 1040 ------- 0 0.0 5.0 2 3
+ 1.23056 2 3 tcp 1040 ------- 0 0.0 5.0 2 3
- 1.2472 2 3 tcp 1040 ------- 0 0.0 5.0 2 3
r 1.2522 2 3 tcp 1040 ------- 0 0.0 5.0 1 2
+ 1.2522 3 5 tcp 1040 ------- 0 0.0 5.0 1 2
- 1.2522 3 5 tcp 1040 ------- 0 0.0 5.0 1 2
r 1.25836 3 5 tcp 1040 ------- 0 0.0 5.0 1 2
+ 1.25836 5 3 ack 40 ------- 0 5.0 0.0 1 4
- 1.25836 5 3 ack 40 ------- 0 5.0 0.0 1 4
r 1.26052 5 3 ack 40 ------- 0 5.0 0.0 1 4
+ 1.26052 3 2 ack 40 ------- 0 5.0 0.0 1 4
- 1.26052 3 2 ack 40 ------- 0 5.0 0.0 1 4
r 1.26632 3 2 ack 40 ------- 0 5.0 0.0 1 4
+ 1.26632 2 0 ack 40 ------- 0 5.0 0.0 1 4
- 1.26632 2 0 ack 40 ------- 0 5.0 0.0 1 4
r 1.26848 2 0 ack 40 ------- 0 5.0 0.0 1 4
+ 1.26848 0 2 tcp 1040 ------- 0 0.0 5.0 3 5
- 1.26848 0 2 tcp 1040 ------- 0 0.0 5.0 3 5
+ 1.26848 0 2 tcp 1040 ------- 0 0.0 5.0 4 6
- 1.27264 0 2 tcp 1040 ------- 0 0.0 5.0 4 6
r 1.273 2 3 tcp 1040 ------- 0 0.0 5.0 2 3
+ 1.273 3 5 tcp 1040 ------- 0 0.0 5.0 2 3
- 1.273 3 5 tcp 1040 ------- 0 0.0 5.0 2 3
r 1.27464 0 2 tcp 1040 ------- 0 0.0 5.0 3 5
+ 1.27464 2 3 tcp 1040 ------- 0 0.0 5.0 3 5
- 1.27464 2 3 tcp 1040 ------- 0 0.0 5.0 3 5
r 1.2788 0 2 tcp 1040 ------- 0 0.0 5.0 4 6
+ 1.2788 2 3 tcp 1040 ------- 0 0.0 5.0 4 6
r 1.27916 3 5 tcp 1040 ------- 0 0.0 5.0 2 3
+ 1.27916 5 3 ack 40 ------- 0 5.0 0.0 2 7
- 1.27916 5 3 ack 40 ------- 0 5.0 0.0 2 7
r 1.28132 5 3 ack 40 ------- 0 5.0 0.0 2 7
+ 1.28132 3 2 ack 40 ------- 0 5.0 0.0 2 7
- 1.28132 3 2 ack 40 ------- 0 5.0 0.0 2 7
r 1.28712 3 2 ack 40 ------- 0 5.0 0.0 2 7
+ 1.28712 2 0 ack 40 ------- 0 5.0 0.0 2 7
- 1.28712 2 0 ack 40 ------- 0 5.0 0.0 2 7
r 1.28928 2 0 ack 40 ------- 0 5.0 0.0 2 7
+ 1.28928 0 2 tcp 1040 ------- 0 0.0 5.0 5 8
- 1.28928 0 2 tcp 1040 ------- 0 0.0 5.0 5 8
+ 1.28928 0 2 tcp 1040 ------- 0 0.0 5.0 6 9
- 1.29344 0 2 tcp 1040 ------- 0 0.0 5.0 6 9
- 1.29544 2 3 tcp 1040 ------- 0 0.0 5.0 4 6
r 1.29544 0 2 tcp 1040 ------- 0 0.0 5.0 5 8
+ 1.29544 2 3 tcp 1040 ------- 0 0.0 5.0 5 8
r 1.2996 0 2 tcp 1040 ------- 0 0.0 5.0 6 9
+ 1.2996 2 3 tcp 1040 ------- 0 0.0 5.0 6 9
r 1.30044 2 3 tcp 1040 ------- 0 0.0 5.0 3 5
+ 1.30044 3 5 tcp 1040 ------- 0 0.0 5.0 3 5
- 1.30044 3 5 tcp 1040 ------- 0 0.0 5.0 3 5
r 1.3066 3 5 tcp 1040 ------- 0 0.0 5.0 3 5
+ 1.3066 5 3 ack 40 ------- 0 5.0 0.0 3 10
- 1.3066 5 3 ack 40 ------- 0 5.0 0.0 3 10
r 1.30876 5 3 ack 40 ------- 0 5.0 0.0 3 10
+ 1.30876 3 2 ack 40 ------- 0 5.0 0.0 3 10
- 1.30876 3 2 ack 40 ------- 0 5.0 0.0 3 10
r 1.31456 3 2 ack 40 ------- 0 5.0 0.0 3 10
+ 1.31456 2 0 ack 40 ------- 0 5.0 0.0 3 10
- 1.31456 2 0 ack 40 ------- 0 5.0 0.0 3 10
- 1.31624 2 3 tcp 1040 ------- 0 0.0 5.0 5 8
r 1.31672 2 0 ack 40 ------- 0 5.0 0.0 3 10
+ 1.31672 0 2 tcp 1040 ------- 0 0.0 5.0 7 11
- 1.31672 0 2 tcp 1040 ------- 0 0.0 5.0 7 11
+ 1.31672 0 2 tcp 1040 ------- 0 0.0 5.0 8 12
- 1.32088 0 2 tcp 1040 ------- 0 0.0 5.0 8 12
r 1.32124 2 3 tcp 1040 ------- 0 0.0 5.0 4 6
+ 1.32124 3 5 tcp 1040 ------- 0 0.0 5.0 4 6
- 1.32124 3 5 tcp 1040 ------- 0 0.0 5.0 4 6
r 1.32288 0 2 tcp 1040 ------- 0 0.0 5.0 7 11
+ 1.32288 2 3 tcp 1040 ------- 0 0.0 5.0 7 11
r 1.32704 0 2 tcp 1040 ------- 0 0.0 5.0 8 12
+ 1.32704 2 3 tcp 1040 ------- 0 0.0 5.0 8 12
r 1.3274 3 5 tcp 1040 ------- 0 0.0 5.0 4 6
+ 1.3274 5 3 ack 40 ------- 0 5.0 0.0 4 13
- 1.3274 5 3 ack 40 ------- 0 5.0 0.0 4 13
r 1.32956 5 3 ack 40 ------- 0 5.0 0.0 4 13
+ 1.32956 3 2 ack 40 ------- 0 5.0 0.0 4 13
- 1.32956 3 2 ack 40 ------- 0 5.0 0.0 4 13
r 1.33536 3 2 ack 40 ------- 0 5.0 0.0 4 13
+ 1.33536 2 0 ack 40 ------- 0 5.0 0.0 4 13
- 1.33536 2 0 ack 40 ------- 0 5.0 0.0 4 13
- 1.33704 2 3 tcp 1040 ------- 0 0.0 5.0 6 9
r 1.33752 2 0 ack 40 ------- 0 5.0 0.0 4 13
+ 1.33752 0 2 tcp 1040 ------- 0 0.0 5.0 9 14
- 1.33752 0 2 tcp 1040 ------- 0 0.0 5.0 9 14
+ 1.33752 0 2 tcp 1040 ------- 0 0.0 5.0 10 15
- 1.34168 0 2 tcp 1040 ------- 0 0.0 5.0 10 15
r 1.34204 2 3 tcp 1040 ------- 0 0.0 5.0 5 8
+ 1.34204 3 5 tcp 1040 ------- 0 0.0 5.0 5 8
- 1.34204 3 5 tcp 1040 ------- 0 0.0 5.0 5 8
r 1.34368 0 2 tcp 1040 ------- 0 0.0 5.0 9 14
+ 1.34368 2 3 tcp 1040 ------- 0 0.0 5.0 9 14
r 1.34784 0 2 tcp 1040 ------- 0 0.0 5.0 10 15
+ 1.34784 2 3 tcp 1040 ------- 0 0.0 5.0 10 15
r 1.3482 3 5 tcp 1040 ------- 0 0.0 5.0 5 8
+ 1.3482 5 3 ack 40 ------- 0 5.0 0.0 5 16
- 1.3482 5 3 ack 40 ------- 0 5.0 0.0 5 16
r 1.35036 5 3 ack 40 ------- 0 5.0 0.0 5 16
+ 1.35036 3 2 ack 40 ------- 0 5.0 0.0 5 16
- 1.35036 3 2 ack 40 ------- 0 5.0 0.0 5 16
r 1.35616 3 2 ack 40 ------- 0 5.0 0.0 5 16
+ 1.35616 2 0 ack 40 ------- 0 5.0 0.0 5 16
- 1.35616 2 0 ack 40 ------- 0 5.0 0.0 5 16
- 1.35784 2 3 tcp 1040 ------- 0 0.0 5.0 7 11
r 1.35832 2 0 ack 40 ------- 0 5.0 0.0 5 16
+ 1.35832 0 2 tcp 1040 ------- 0 0.0 5.0 11 17
- 1.35832 0 2 tcp 1040 ------- 0 0.0 5.0 11 17
+ 1.35832 0 2 tcp 1040 ------- 0 0.0 5.0 12 18
- 1.36248 0 2 tcp 1040 ------- 0 0.0 5.0 12 18
r 1.36284 2 3 tcp 1040 ------- 0 0.0 5.0 6 9
+ 1.36284 3 5 tcp 1040 ------- 0 0.0 5.0 6 9
- 1.36284 3 5 tcp 1040 ------- 0 0.0 5.0 6 9
r 1.36448 0 2 tcp 1040 ------- 0 0.0 5.0 11 17
+ 1.36448 2 3 tcp 1040 ------- 0 0.0 5.0 11 17
r 1.36864 0 2 tcp 1040 ------- 0 0.0 5.0 12 18
+ 1.36864 2 3 tcp 1040 ------- 0 0.0 5.0 12 18
r 1.369 3 5 tcp 1040 ------- 0 0.0 5.0 6 9
+ 1.369 5 3 ack 40 ------- 0 5.0 0.0 6 19
- 1.369 5 3 ack 40 ------- 0 5.0 0.0 6 19
r 1.37116 5 3 ack 40 ------- 0 5.0 0.0 6 19
+ 1.37116 3 2 ack 40 ------- 0 5.0 0.0 6 19
- 1.37116 3 2 ack 40 ------- 0 5.0 0.0 6 19
r 1.37696 3 2 ack 40 ------- 0 5.0 0.0 6 19
+ 1.37696 2 0 ack 40 ------- 0 5.0 0.0 6 19
- 1.37696 2 0 ack 40 ------- 0 5.0 0.0 6 19
- 1.37864 2 3 tcp 1040 ------- 0 0.0 5.0 8 12
r 1.37912 2 0 ack 40 ------- 0 5.0 0.0 6 19
+ 1.37912 0 2 tcp 1040 ------- 0 0.0 5.0 13 20
- 1.37912 0 2 tcp 1040 ------- 0 0.0 5.0 13 20
+ 1.37912 0 2 tcp 1040 ------- 0 0.0 5.0 14 21
- 1.38328 0 2 tcp 1040 ------- 0 0.0 5.0 14 21
r 1.38364 2 3 tcp 1040 ------- 0 0.0 5.0 7 11
+ 1.38364 3 5 tcp 1040 ------- 0 0.0 5.0 7 11
- 1.38364 3 5 tcp 1040 ------- 0 0.0 5.0 7 11
r 1.38528 0 2 tcp 1040 ------- 0 0.0 5.0 13 20
+ 1.38528 2 3 tcp 1040 ------- 0 0.0 5.0 13 20
r 1.38944 0 2 tcp 1040 ------- 0 0.0 5.0 14 21
+ 1.38944 2 3 tcp 1040 ------- 0 0.0 5.0 14 21
r 1.3898 3 5 tcp 1040 ------- 0 0.0 5.0 7 11
+ 1.3898 5 3 ack 40 ------- 0 5.0 0.0 7 22
- 1.3898 5 3 ack 40 ------- 0 5.0 0.0 7 22
r 1.39196 5 3 ack 40 ------- 0 5.0 0.0 7 22
+ 1.39196 3 2 ack 40 ------- 0 5.0 0.0 7 22
- 1.39196 3 2 ack 40 ------- 0 5.0 0.0 7 22
r 1.39776 3 2 ack 40 ------- 0 5.0 0.0 7 22
+ 1.39776 2 0 ack 40 ------- 0 5.0 0.0 7 22
- 1.39776 2 0 ack 40 ------- 0 5.0 0.0 7 22
- 1.39944 2 3 tcp 1040 ------- 0 0.0 5.0 9 14
r 1.39992 2 0 ack 40 ------- 0 5.0 0.0 7 22
+ 1.39992 0 2 tcp 1040 ------- 0 0.0 5.0 15 23
- 1.39992 0 2 tcp 1040 ------- 0 0.0 5.0 15 23
+ 1.39992 0 2 tcp 1040 ------- 0 0.0 5.0 16 24
- 1.40408 0 2 tcp 1040 ------- 0 0.0 5.0 16 24
r 1.40444 2 3 tcp 1040 ------- 0 0.0 5.0 8 12
+ 1.40444 3 5 tcp 1040 ------- 0 0.0 5.0 8 12
- 1.40444 3 5 tcp 1040 ------- 0 0.0 5.0 8 12
r 1.40608 0 2 tcp 1040 ------- 0 0.0 5.0 15 23
+ 1.40608 2 3 tcp 1040 ------- 0 0.0 5.0 15 23
r 1.41024 0 2 tcp 1040 ------- 0 0.0 5.0 16 24
+ 1.41024 2 3 tcp 1040 ------- 0 0.0 5.0 16 24
r 1.4106 3 5 tcp 1040 ------- 0 0.0 5.0 8 12
+ 1.4106 5 3 ack 40 ------- 0 5.0 0.0 8 25
- 1.4106 5 3 ack 40 ------- 0 5.0 0.0 8 25
r 1.41276 5 3 ack 40 ------- 0 5.0 0.0 8 25
+ 1.41276 3 2 ack 40 ------- 0 5.0 0.0 8 25
- 1.41276 3 2 ack 40 ------- 0 5.0 0.0 8 25
r 1.41856 3 2 ack 40 ------- 0 5.0 0.0 8 25
+ 1.41856 2 0 ack 40 ------- 0 5.0 0.0 8 25
- 1.41856 2 0 ack 40 ------- 0 5.0 0.0 8 25
- 1.42024 2 3 tcp 1040 ------- 0 0.0 5.0 10 15
r 1.42072 2 0 ack 40 ------- 0 5.0 0.0 8 25
+ 1.42072 0 2 tcp 1040 ------- 0 0.0 5.0 17 26
- 1.42072 0 2 tcp 1040 ------- 0 0.0 5.0 17 26
+ 1.42072 0 2 tcp 1040 ------- 0 0.0 5.0 18 27
- 1.42488 0 2 tcp 1040 ------- 0 0.0 5.0 18 27
r 1.42524 2 3 tcp 1040 ------- 0 0.0 5.0 9 14
+ 1.42524 3 5 tcp 1040 ------- 0 0.0 5.0 9 14
- 1.42524 3 5 tcp 1040 ------- 0 0.0 5.0 9 14
r 1.42688 0 2 tcp 1040 ------- 0 0.0 5.0 17 26
+ 1.42688 2 3 tcp 1040 ------- 0 0.0 5.0 17 26
r 1.43104 0 2 tcp 1040 ------- 0 0.0 5.0 18 27
+ 1.43104 2 3 tcp 1040 ------- 0 0.0 5.0 18 27
r 1.4314 3 5 tcp 1040 ------- 0 0.0 5.0 9 14
+ 1.4314 5 3 ack 40 ------- 0 5.0 0.0 9 28
- 1.4314 5 3 ack 40 ------- 0 5.0 0.0 9 28
r 1.43356 5 3 ack 40 ------- 0 5.0 0.0 9 28
+ 1.43356 3 2 ack 40 ------- 0 5.0 0.0 9 28
- 1.43356 3 2 ack 40 ------- 0 5.0 0.0 9 28
r 1.43936 3 2 ack 40 ------- 0 5.0 0.0 9 28
+ 1.43936 2 0 ack 40 ------- 0 5.0 0.0 9 28
- 1.43936 2 0 ack 40 ------- 0 5.0 0.0 9 28
- 1.44104 2 3 tcp 1040 ------- 0 0.0 5.0 11 17
r 1.44152 2 0 ack 40 ------- 0 5.0 0.0 9 28
+ 1.44152 0 2 tcp 1040 ------- 0 0.0 5.0 19 29
- 1.44152 0 2 tcp 1040 ------- 0 0.0 5.0 19 29
+ 1.44152 0 2 tcp 1040 ------- 0 0.0 5.0 20 30
- 1.44568 0 2 tcp 1040 ------- 0 0.0 5.0 20 30
r 1.44604 2 3 tcp 1040 ------- 0 0.0 5.0 10 15
+ 1.44604 3 5 tcp 1040 ------- 0 0.0 5.0 10 15
- 1.44604 3 5 tcp 1040 ------- 0 0.0 5.0 10 15
r 1.44768 0 2 tcp 1040 ------- 0 0.0 5.0 19 29
+ 1.44768 2 3 tcp 1040 ------- 0 0.0 5.0 19 29
r 1.45184 0 2 tcp 1040 ------- 0 0.0 5.0 20 30
+ 1.45184 2 3 tcp 1040 ------- 0 0.0 5.0 20 30
r 1.4522 3 5 tcp 1040 ------- 0 0.0 5.0 10 15
+ 1.4522 5 3 ack 40 ------- 0 5.0 0.0 10 31
- 1.4522 5 3 ack 40 ------- 0 5.0 0.0 10 31
r 1.45436 5 3 ack 40 ------- 0 5.0 0.0 10 31
+ 1.45436 3 2 ack 40 ------- 0 5.0 0.0 10 31
- 1.45436 3 2 ack 40 ------- 0 5.0 0.0 10 31
r 1.46016 3 2 ack 40 ------- 0 5.0 0.0 10 31
+ 1.46016 2 0 ack 40 ------- 0 5.0 0.0 10 31
- 1.46016 2 0 ack 40 ------- 0 5.0 0.0 10 31
- 1.46184 2 3 tcp 1040 ------- 0 0.0 5.0 12 18
r 1.46232 2 0 ack 40 ------- 0 5.0 0.0 10 31
+ 1.46232 0 2 tcp 1040 ------- 0 0.0 5.0 21 32
- 1.46232 0 2 tcp 1040 ------- 0 0.0 5.0 21 32
+ 1.46232 0 2 tcp 1040 ------- 0 0.0 5.0 22 33
- 1.46648 0 2 tcp 1040 ------- 0 0.0 5.0 22 33
r 1.46684 2 3 tcp 1040 ------- 0 0.0 5.0 11 17
+ 1.46684 3 5 tcp 1040 ------- 0 0.0 5.0 11 17
- 1.46684 3 5 tcp 1040 ------- 0 0.0 5.0 11 17
r 1.46848 0 2 tcp 1040 ------- 0 0.0 5.0 21 32
+ 1.46848 2 3 tcp 1040 ------- 0 0.0 5.0 21 32
r 1.47264 0 2 tcp 1040 ------- 0 0.0 5.0 22 33
+ 1.47264 2 3 tcp 1040 ------- 0 0.0 5.0 22 33
d 1.47264 2 3 tcp 1040 ------- 0 0.0 5.0 22 33
r 1.473 3 5 tcp 1040 ------- 0 0.0 5.0 11 17
+ 1.473 5 3 ack 40 ------- 0 5.0 0.0 11 34
- 1.473 5 3 ack 40 ------- 0 5.0 0.0 11 34
r 1.47516 5 3 ack 40 ------- 0 5.0 0.0 11 34
+ 1.47516 3 2 ack 40 ------- 0 5.0 0.0 11 34
- 1.47516 3 2 ack 40 ------- 0 5.0 0.0 11 34
r 1.48096 3 2 ack 40 ------- 0 5.0 0.0 11 34
+ 1.48096 2 0 ack 40 ------- 0 5.0 0.0 11 34
- 1.48096 2 0 ack 40 ------- 0 5.0 0.0 11 34
- 1.48264 2 3 tcp 1040 ------- 0 0.0 5.0 13 20
r 1.48312 2 0 ack 40 ------- 0 5.0 0.0 11 34
+ 1.48312 0 2 tcp 1040 ------- 0 0.0 5.0 23 35
- 1.48312 0 2 tcp 1040 ------- 0 0.0 5.0 23 35
+ 1.48312 0 2 tcp 1040 ------- 0 0.0 5.0 24 36
- 1.48728 0 2 tcp 1040 ------- 0 0.0 5.0 24 36
r 1.48764 2 3 tcp 1040 ------- 0 0.0 5.0 12 18
+ 1.48764 3 5 tcp 1040 ------- 0 0.0 5.0 12 18
- 1.48764 3 5 tcp 1040 ------- 0 0.0 5.0 12 18
r 1.48928 0 2 tcp 1040 ------- 0 0.0 5.0 23 35
+ 1.48928 2 3 tcp 1040 ------- 0 0.0 5.0 23 35
r 1.49344 0 2 tcp 1040 ------- 0 0.0 5.0 24 36
+ 1.49344 2 3 tcp 1040 ------- 0 0.0 5.0 24 36
d 1.49344 2 3 tcp 1040 ------- 0 0.0 5.0 24 36
r 1.4938 3 5 tcp 1040 ------- 0 0.0 5.0 12 18
+ 1.4938 5 3 ack 40 ------- 0 5.0 0.0 12 37
- 1.4938 5 3 ack 40 ------- 0 5.0 0.0 12 37
r 1.49596 5 3 ack 40 ------- 0 5.0 0.0 12 37
+ 1.49596 3 2 ack 40 ------- 0 5.0 0.0 12 37
- 1.49596 3 2 ack 40 ------- 0 5.0 0.0 12 37
r 1.50176 3 2 ack 40 ------- 0 5.0 0.0 12 37
+ 1.50176 2 0 ack 40 ------- 0 5.0 0.0 12 37
- 1.50176 2 0 ack 40 ------- 0 5.0 0.0 12 37
- 1.50344 2 3 tcp 1040 ------- 0 0.0 5.0 14 21
r 1.50392 2 0 ack 40 ------- 0 5.0 0.0 12 37
+ 1.50392 0 2 tcp 1040 ------- 0 0.0 5.0 25 38
- 1.50392 0 2 tcp 1040 ------- 0 0.0 5.0 25 38
+ 1.50392 0 2 tcp 1040 ------- 0 0.0 5.0 26 39
- 1.50808 0 2 tcp 1040 ------- 0 0.0 5.0 26 39
r 1.50844 2 3 tcp 1040 ------- 0 0.0 5.0 13 20
+ 1.50844 3 5 tcp 1040 ------- 0 0.0 5.0 13 20
- 1.50844 3 5 tcp 1040 ------- 0 0.0 5.0 13 20
r 1.51008 0 2 tcp 1040 ------- 0 0.0 5.0 25 38
+ 1.51008 2 3 tcp 1040 ------- 0 0.0 5.0 25 38
r 1.51424 0 2 tcp 1040 ------- 0 0.0 5.0 26 39
+ 1.51424 2 3 tcp 1040 ------- 0 0.0 5.0 26 39
d 1.51424 2 3 tcp 1040 ------- 0 0.0 5.0 26 39
r 1.5146 3 5 tcp 1040 ------- 0 0.0 5.0 13 20
+ 1.5146 5 3 ack 40 ------- 0 5.0 0.0 13 40
- 1.5146 5 3 ack 40 ------- 0 5.0 0.0 13 40
r 1.51676 5 3 ack 40 ------- 0 5.0 0.0 13 40
+ 1.51676 3 2 ack 40 ------- 0 5.0 0.0 13 40
- 1.51676 3 2 ack 40 ------- 0 5.0 0.0 13 40
r 1.52256 3 2 ack 40 ------- 0 5.0 0.0 13 40
+ 1.52256 2 0 ack 40 ------- 0 5.0 0.0 13 40
- 1.52256 2 0 ack 40 ------- 0 5.0 0.0 13 40
- 1.52424 2 3 tcp 1040 ------- 0 0.0 5.0 15 23
r 1.52472 2 0 ack 40 ------- 0 5.0 0.0 13 40
+ 1.52472 0 2 tcp 1040 ------- 0 0.0 5.0 27 41
- 1.52472 0 2 tcp 1040 ------- 0 0.0 5.0 27 41
+ 1.52472 0 2 tcp 1040 ------- 0 0.0 5.0 28 42
- 1.52888 0 2 tcp 1040 ------- 0 0.0 5.0 28 42
r 1.52924 2 3 tcp 1040 ------- 0 0.0 5.0 14 21
+ 1.52924 3 5 tcp 1040 ------- 0 0.0 5.0 14 21
- 1.52924 3 5 tcp 1040 ------- 0 0.0 5.0 14 21
r 1.53088 0 2 tcp 1040 ------- 0 0.0 5.0 27 41
+ 1.53088 2 3 tcp 1040 ------- 0 0.0 5.0 27 41
r 1.53504 0 2 tcp 1040 ------- 0 0.0 5.0 28 42
+ 1.53504 2 3 tcp 1040 ------- 0 0.0 5.0 28 42
d 1.53504 2 3 tcp 1040 ------- 0 0.0 5.0 28 42
r 1.5354 3 5 tcp 1040 ------- 0 0.0 5.0 14 21
+ 1.5354 5 3 ack 40 ------- 0 5.0 0.0 14 43
- 1.5354 5 3 ack 40 ------- 0 5.0 0.0 14 43
r 1.53756 5 3 ack 40 ------- 0 5.0 0.0 14 43
+ 1.53756 3 2 ack 40 ------- 0 5.0 0.0 14 43
- 1.53756 3 2 ack 40 ------- 0 5.0 0.0 14 43
r 1.54336 3 2 ack 40 ------- 0 5.0 0.0 14 43
+ 1.54336 2 0 ack 40 ------- 0 5.0 0.0 14 43
- 1.54336 2 0 ack 40 ------- 0 5.0 0.0 14 43
- 1.54504 2 3 tcp 1040 ------- 0 0.0 5.0 16 24
r 1.54552 2 0 ack 40 ------- 0 5.0 0.0 14 43
+ 1.54552 0 2 tcp 1040 ------- 0 0.0 5.0 29 44
- 1.54552 0 2 tcp 1040 ------- 0 0.0 5.0 29 44
+ 1.54552 0 2 tcp 1040 ------- 0 0.0 5.0 30 45
- 1.54968 0 2 tcp 1040 ------- 0 0.0 5.0 30 45
r 1.55004 2 3 tcp 1040 ------- 0 0.0 5.0 15 23
+ 1.55004 3 5 tcp 1040 ------- 0 0.0 5.0 15 23
- 1.55004 3 5 tcp 1040 ------- 0 0.0 5.0 15 23
r 1.55168 0 2 tcp 1040 ------- 0 0.0 5.0 29 44
+ 1.55168 2 3 tcp 1040 ------- 0 0.0 5.0 29 44
r 1.55584 0 2 tcp 1040 ------- 0 0.0 5.0 30 45
+ 1.55584 2 3 tcp 1040 ------- 0 0.0 5.0 30 45
d 1.55584 2 3 tcp 1040 ------- 0 0.0 5.0 30 45
r 1.5562 3 5 tcp 1040 ------- 0 0.0 5.0 15 23
+ 1.5562 5 3 ack 40 ------- 0 5.0 0.0 15 46
- 1.5562 5 3 ack 40 ------- 0 5.0 0.0 15 46
r 1.55836 5 3 ack 40 ------- 0 5.0 0.0 15 46
+ 1.55836 3 2 ack 40 ------- 0 5.0 0.0 15 46
- 1.55836 3 2 ack 40 ------- 0 5.0 0.0 15 46
r 1.56416 3 2 ack 40 ------- 0 5.0 0.0 15 46
+ 1.56416 2 0 ack 40 ------- 0 5.0 0.0 15 46
- 1.56416 2 0 ack 40 ------- 0 5.0 0.0 15 46
- 1.56584 2 3 tcp 1040 ------- 0 0.0 5.0 17 26
r 1.56632 2 0 ack 40 ------- 0 5.0 0.0 15 46
+ 1.56632 0 2 tcp 1040 ------- 0 0.0 5.0 31 47
- 1.56632 0 2 tcp 1040 ------- 0 0.0 5.0 31 47
+ 1.56632 0 2 tcp 1040 ------- 0 0.0 5.0 32 48
- 1.57048 0 2 tcp 1040 ------- 0 0.0 5.0 32 48
r 1.57084 2 3 tcp 1040 ------- 0 0.0 5.0 16 24
+ 1.57084 3 5 tcp 1040 ------- 0 0.0 5.0 16 24
- 1.57084 3 5 tcp 1040 ------- 0 0.0 5.0 16 24
r 1.57248 0 2 tcp 1040 ------- 0 0.0 5.0 31 47
+ 1.57248 2 3 tcp 1040 ------- 0 0.0 5.0 31 47
r 1.57664 0 2 tcp 1040 ------- 0 0.0 5.0 32 48
+ 1.57664 2 3 tcp 1040 ------- 0 0.0 5.0 32 48
d 1.57664 2 3 tcp 1040 ------- 0 0.0 5.0 32 48
r 1.577 3 5 tcp 1040 ------- 0 0.0 5.0 16 24
+ 1.577 5 3 ack 40 ------- 0 5.0 0.0 16 49
- 1.577 5 3 ack 40 ------- 0 5.0 0.0 16 49
r 1.57916 5 3 ack 40 ------- 0 5.0 0.0 16 49
+ 1.57916 3 2 ack 40 ------- 0 5.0 0.0 16 49
- 1.57916 3 2 ack 40 ------- 0 5.0 0.0 16 49
r 1.58496 3 2 ack 40 ------- 0 5.0 0.0 16 49
+ 1.58496 2 0 ack 40 ------- 0 5.0 0.0 16 49
- 1.58496 2 0 ack 40 ------- 0 5.0 0.0 16 49
- 1.58664 2 3 tcp 1040 ------- 0 0.0 5.0 18 27
r 1.58712 2 0 ack 40 ------- 0 5.0 0.0 16 49
+ 1.58712 0 2 tcp 1040 ------- 0 0.0 5.0 33 50
- 1.58712 0 2 tcp 1040 ------- 0 0.0 5.0 33 50
+ 1.58712 0 2 tcp 1040 ------- 0 0.0 5.0 34 51
- 1.59128 0 2 tcp 1040 ------- 0 0.0 5.0 34 51
r 1.59164 2 3 tcp 1040 ------- 0 0.0 5.0 17 26
+ 1.59164 3 5 tcp 1040 ------- 0 0.0 5.0 17 26
- 1.59164 3 5 tcp 1040 ------- 0 0.0 5.0 17 26
r 1.59328 0 2 tcp 1040 ------- 0 0.0 5.0 33 50
+ 1.59328 2 3 tcp 1040 ------- 0 0.0 5.0 33 50
r 1.59744 0 2 tcp 1040 ------- 0 0.0 5.0 34 51
+ 1.59744 2 3 tcp 1040 ------- 0 0.0 5.0 34 51
d 1.59744 2 3 tcp 1040 ------- 0 0.0 5.0 34 51
r 1.5978 3 5 tcp 1040 ------- 0 0.0 5.0 17 26
+ 1.5978 5 3 ack 40 ------- 0 5.0 0.0 17 52
- 1.5978 5 3 ack 40 ------- 0 5.0 0.0 17 52
r 1.59996 5 3 ack 40 ------- 0 5.0 0.0 17 52
+ 1.59996 3 2 ack 40 ------- 0 5.0 0.0 17 52
- 1.59996 3 2 ack 40 ------- 0 5.0 0.0 17 52
r 1.60576 3 2 ack 40 ------- 0 5.0 0.0 17 52
+ 1.60576 2 0 ack 40 ------- 0 5.0 0.0 17 52
- 1.60576 2 0 ack 40 ------- 0 5.0 0.0 17 52
- 1.60744 2 3 tcp 1040 ------- 0 0.0 5.0 19 29
r 1.60792 2 0 ack 40 ------- 0 5.0 0.0 17 52
+ 1.60792 0 2 tcp 1040 ------- 0 0.0 5.0 35 53
- 1.60792 0 2 tcp 1040 ------- 0 0.0 5.0 35 53
+ 1.60792 0 2 tcp 1040 ------- 0 0.0 5.0 36 54
- 1.61208 0 2 tcp 1040 ------- 0 0.0 5.0 36 54
r 1.61244 2 3 tcp 1040 ------- 0 0.0 5.0 18 27
+ 1.61244 3 5 tcp 1040 ------- 0 0.0 5.0 18 27
- 1.61244 3 5 tcp 1040 ------- 0 0.0 5.0 18 27
r 1.61408 0 2 tcp 1040 ------- 0 0.0 5.0 35 53
+ 1.61408 2 3 tcp 1040 ------- 0 0.0 5.0 35 53
r 1.61824 0 2 tcp 1040 ------- 0 0.0 5.0 36 54
+ 1.61824 2 3 tcp 1040 ------- 0 0.0 5.0 36 54
d 1.61824 2 3 tcp 1040 ------- 0 0.0 5.0 36 54
r 1.6186 3 5 tcp 1040 ------- 0 0.0 5.0 18 27
+ 1.6186 5 3 ack 40 ------- 0 5.0 0.0 18 55
- 1.6186 5 3 ack 40 ------- 0 5.0 0.0 18 55
r 1.62076 5 3 ack 40 ------- 0 5.0 0.0 18 55
+ 1.62076 3 2 ack 40 ------- 0 5.0 0.0 18 55
- 1.62076 3 2 ack 40 ------- 0 5.0 0.0 18 55
r 1.62656 3 2 ack 40 ------- 0 5.0 0.0 18 55
+ 1.62656 2 0 ack 40 ------- 0 5.0 0.0 18 55
- 1.62656 2 0 ack 40 ------- 0 5.0 0.0 18 55
- 1.62824 2 3 tcp 1040 ------- 0 0.0 5.0 20 30
r 1.62872 2 0 ack 40 ------- 0 5.0 0.0 18 55
+ 1.62872 0 2 tcp 1040 ------- 0 0.0 5.0 37 56
- 1.62872 0 2 tcp 1040 ------- 0 0.0 5.0 37 56
+ 1.62872 0 2 tcp 1040 ------- 0 0.0 5.0 38 57
- 1.63288 0 2 tcp 1040 ------- 0 0.0 5.0 38 57
r 1.63324 2 3 tcp 1040 ------- 0 0.0 5.0 19 29
+ 1.63324 3 5 tcp 1040 ------- 0 0.0 5.0 19 29
- 1.63324 3 5 tcp 1040 ------- 0 0.0 5.0 19 29
r 1.63488 0 2 tcp 1040 ------- 0 0.0 5.0 37 56
+ 1.63488 2 3 tcp 1040 ------- 0 0.0 5.0 37 56
r 1.63904 0 2 tcp 1040 ------- 0 0.0 5.0 38 57
+ 1.63904 2 3 tcp 1040 ------- 0 0.0 5.0 38 57
d 1.63904 2 3 tcp 1040 ------- 0 0.0 5.0 38 57
r 1.6394 3 5 tcp 1040 ------- 0 0.0 5.0 19 29
+ 1.6394 5 3 ack 40 ------- 0 5.0 0.0 19 58
- 1.6394 5 3 ack 40 ------- 0 5.0 0.0 19 58
r 1.64156 5 3 ack 40 ------- 0 5.0 0.0 19 58
+ 1.64156 3 2 ack 40 ------- 0 5.0 0.0 19 58
- 1.64156 3 2 ack 40 ------- 0 5.0 0.0 19 58
r 1.64736 3 2 ack 40 ------- 0 5.0 0.0 19 58
+ 1.64736 2 0 ack 40 ------- 0 5.0 0.0 19 58
- 1.64736 2 0 ack 40 ------- 0 5.0 0.0 19 58
- 1.64904 2 3 tcp 1040 ------- 0 0.0 5.0 21 32
r 1.64952 2 0 ack 40 ------- 0 5.0 0.0 19 58
+ 1.64952 0 2 tcp 1040 ------- 0 0.0 5.0 39 59
- 1.64952 0 2 tcp 1040 ------- 0 0.0 5.0 39 59
r 1.65404 2 3 tcp 1040 ------- 0 0.0 5.0 20 30
+ 1.65404 3 5 tcp 1040 ------- 0 0.0 5.0 20 30
- 1.65404 3 5 tcp 1040 ------- 0 0.0 5.0 20 30
r 1.65568 0 2 tcp 1040 ------- 0 0.0 5.0 39 59
+ 1.65568 2 3 tcp 1040 ------- 0 0.0 5.0 39 59
r 1.6602 3 5 tcp 1040 ------- 0 0.0 5.0 20 30
+ 1.6602 5 3 ack 40 ------- 0 5.0 0.0 20 60
- 1.6602 5 3 ack 40 ------- 0 5.0 0.0 20 60
r 1.66236 5 3 ack 40 ------- 0 5.0 0.0 20 60
+ 1.66236 3 2 ack 40 ------- 0 5.0 0.0 20 60
- 1.66236 3 2 ack 40 ------- 0 5.0 0.0 20 60
r 1.66816 3 2 ack 40 ------- 0 5.0 0.0 20 60
+ 1.66816 2 0 ack 40 ------- 0 5.0 0.0 20 60
- 1.66816 2 0 ack 40 ------- 0 5.0 0.0 20 60
- 1.66984 2 3 tcp 1040 ------- 0 0.0 5.0 23 35
r 1.67032 2 0 ack 40 ------- 0 5.0 0.0 20 60
+ 1.67032 0 2 tcp 1040 ------- 0 0.0 5.0 40 61
- 1.67032 0 2 tcp 1040 ------- 0 0.0 5.0 40 61
r 1.67484 2 3 tcp 1040 ------- 0 0.0 5.0 21 32
+ 1.67484 3 5 tcp 1040 ------- 0 0.0 5.0 21 32
- 1.67484 3 5 tcp 1040 ------- 0 0.0 5.0 21 32
r 1.67648 0 2 tcp 1040 ------- 0 0.0 5.0 40 61
+ 1.67648 2 3 tcp 1040 ------- 0 0.0 5.0 40 61
r 1.681 3 5 tcp 1040 ------- 0 0.0 5.0 21 32
+ 1.681 5 3 ack 40 ------- 0 5.0 0.0 21 62
- 1.681 5 3 ack 40 ------- 0 5.0 0.0 21 62
r 1.68316 5 3 ack 40 ------- 0 5.0 0.0 21 62
+ 1.68316 3 2 ack 40 ------- 0 5.0 0.0 21 62
- 1.68316 3 2 ack 40 ------- 0 5.0 0.0 21 62
r 1.68896 3 2 ack 40 ------- 0 5.0 0.0 21 62
+ 1.68896 2 0 ack 40 ------- 0 5.0 0.0 21 62
- 1.68896 2 0 ack 40 ------- 0 5.0 0.0 21 62
- 1.69064 2 3 tcp 1040 ------- 0 0.0 5.0 25 38
r 1.69112 2 0 ack 40 ------- 0 5.0 0.0 21 62
+ 1.69112 0 2 tcp 1040 ------- 0 0.0 5.0 41 63
- 1.69112 0 2 tcp 1040 ------- 0 0.0 5.0 41 63
r 1.69564 2 3 tcp 1040 ------- 0 0.0 5.0 23 35
+ 1.69564 3 5 tcp 1040 ------- 0 0.0 5.0 23 35
- 1.69564 3 5 tcp 1040 ------- 0 0.0 5.0 23 35
r 1.69728 0 2 tcp 1040 ------- 0 0.0 5.0 41 63
+ 1.69728 2 3 tcp 1040 ------- 0 0.0 5.0 41 63
r 1.7018 3 5 tcp 1040 ------- 0 0.0 5.0 23 35
+ 1.7018 5 3 ack 40 ------- 0 5.0 0.0 21 64
- 1.7018 5 3 ack 40 ------- 0 5.0 0.0 21 64
r 1.70396 5 3 ack 40 ------- 0 5.0 0.0 21 64
+ 1.70396 3 2 ack 40 ------- 0 5.0 0.0 21 64
- 1.70396 3 2 ack 40 ------- 0 5.0 0.0 21 64
r 1.70976 3 2 ack 40 ------- 0 5.0 0.0 21 64
+ 1.70976 2 0 ack 40 ------- 0 5.0 0.0 21 64
- 1.70976 2 0 ack 40 ------- 0 5.0 0.0 21 64
- 1.71144 2 3 tcp 1040 ------- 0 0.0 5.0 27 41
r 1.71192 2 0 ack 40 ------- 0 5.0 0.0 21 64
r 1.71644 2 3 tcp 1040 ------- 0 0.0 5.0 25 38
+ 1.71644 3 5 tcp 1040 ------- 0 0.0 5.0 25 38
- 1.71644 3 5 tcp 1040 ------- 0 0.0 5.0 25 38
r 1.7226 3 5 tcp 1040 ------- 0 0.0 5.0 25 38
+ 1.7226 5 3 ack 40 ------- 0 5.0 0.0 21 65
- 1.7226 5 3 ack 40 ------- 0 5.0 0.0 21 65
r 1.72476 5 3 ack 40 ------- 0 5.0 0.0 21 65
+ 1.72476 3 2 ack 40 ------- 0 5.0 0.0 21 65
- 1.72476 3 2 ack 40 ------- 0 5.0 0.0 21 65
r 1.73056 3 2 ack 40 ------- 0 5.0 0.0 21 65
+ 1.73056 2 0 ack 40 ------- 0 5.0 0.0 21 65
- 1.73056 2 0 ack 40 ------- 0 5.0 0.0 21 65
- 1.73224 2 3 tcp 1040 ------- 0 0.0 5.0 29 44
r 1.73272 2 0 ack 40 ------- 0 5.0 0.0 21 65
r 1.73724 2 3 tcp 1040 ------- 0 0.0 5.0 27 41
+ 1.73724 3 5 tcp 1040 ------- 0 0.0 5.0 27 41
- 1.73724 3 5 tcp 1040 ------- 0 0.0 5.0 27 41
r 1.7434 3 5 tcp 1040 ------- 0 0.0 5.0 27 41
+ 1.7434 5 3 ack 40 ------- 0 5.0 0.0 21 66
- 1.7434 5 3 ack 40 ------- 0 5.0 0.0 21 66
r 1.74556 5 3 ack 40 ------- 0 5.0 0.0 21 66
+ 1.74556 3 2 ack 40 ------- 0 5.0 0.0 21 66
- 1.74556 3 2 ack 40 ------- 0 5.0 0.0 21 66
r 1.75136 3 2 ack 40 ------- 0 5.0 0.0 21 66
+ 1.75136 2 0 ack 40 ------- 0 5.0 0.0 21 66
- 1.75136 2 0 ack 40 ------- 0 5.0 0.0 21 66
- 1.75304 2 3 tcp 1040 ------- 0 0.0 5.0 31 47
r 1.75352 2 0 ack 40 ------- 0 5.0 0.0 21 66
+ 1.75352 0 2 tcp 1040 ---A--- 0 0.0 5.0 22 67
- 1.75352 0 2 tcp 1040 ---A--- 0 0.0 5.0 22 67
r 1.75804 2 3 tcp 1040 ------- 0 0.0 5.0 29 44
+ 1.75804 3 5 tcp 1040 ------- 0 0.0 5.0 29 44
- 1.75804 3 5 tcp 1040 ------- 0 0.0 5.0 29 44
r 1.75968 0 2 tcp 1040 ---A--- 0 0.0 5.0 22 67
+ 1.75968 2 3 tcp 1040 ---A--- 0 0.0 5.0 22 67
r 1.7642 3 5 tcp 1040 ------- 0 0.0 5.0 29 44
+ 1.7642 5 3 ack 40 ------- 0 5.0 0.0 21 68
- 1.7642 5 3 ack 40 ------- 0 5.0 0.0 21 68
r 1.76636 5 3 ack 40 ------- 0 5.0 0.0 21 68
+ 1.76636 3 2 ack 40 ------- 0 5.0 0.0 21 68
- 1.76636 3 2 ack 40 ------- 0 5.0 0.0 21 68
r 1.77216 3 2 ack 40 ------- 0 5.0 0.0 21 68
+ 1.77216 2 0 ack 40 ------- 0 5.0 0.0 21 68
- 1.77216 2 0 ack 40 ------- 0 5.0 0.0 21 68
- 1.77384 2 3 tcp 1040 ------- 0 0.0 5.0 33 50
r 1.77432 2 0 ack 40 ------- 0 5.0 0.0 21 68
r 1.77884 2 3 tcp 1040 ------- 0 0.0 5.0 31 47
+ 1.77884 3 5 tcp 1040 ------- 0 0.0 5.0 31 47
- 1.77884 3 5 tcp 1040 ------- 0 0.0 5.0 31 47
r 1.785 3 5 tcp 1040 ------- 0 0.0 5.0 31 47
+ 1.785 5 3 ack 40 ------- 0 5.0 0.0 21 69
- 1.785 5 3 ack 40 ------- 0 5.0 0.0 21 69
r 1.78716 5 3 ack 40 ------- 0 5.0 0.0 21 69
+ 1.78716 3 2 ack 40 ------- 0 5.0 0.0 21 69
- 1.78716 3 2 ack 40 ------- 0 5.0 0.0 21 69
r 1.79296 3 2 ack 40 ------- 0 5.0 0.0 21 69
+ 1.79296 2 0 ack 40 ------- 0 5.0 0.0 21 69
- 1.79296 2 0 ack 40 ------- 0 5.0 0.0 21 69
- 1.79464 2 3 tcp 1040 ------- 0 0.0 5.0 35 53
r 1.79512 2 0 ack 40 ------- 0 5.0 0.0 21 69
r 1.79964 2 3 tcp 1040 ------- 0 0.0 5.0 33 50
+ 1.79964 3 5 tcp 1040 ------- 0 0.0 5.0 33 50
- 1.79964 3 5 tcp 1040 ------- 0 0.0 5.0 33 50
r 1.8058 3 5 tcp 1040 ------- 0 0.0 5.0 33 50
+ 1.8058 5 3 ack 40 ------- 0 5.0 0.0 21 70
- 1.8058 5 3 ack 40 ------- 0 5.0 0.0 21 70
r 1.80796 5 3 ack 40 ------- 0 5.0 0.0 21 70
+ 1.80796 3 2 ack 40 ------- 0 5.0 0.0 21 70
- 1.80796 3 2 ack 40 ------- 0 5.0 0.0 21 70
r 1.81376 3 2 ack 40 ------- 0 5.0 0.0 21 70
+ 1.81376 2 0 ack 40 ------- 0 5.0 0.0 21 70
- 1.81376 2 0 ack 40 ------- 0 5.0 0.0 21 70
- 1.81544 2 3 tcp 1040 ------- 0 0.0 5.0 37 56
r 1.81592 2 0 ack 40 ------- 0 5.0 0.0 21 70
r 1.82044 2 3 tcp 1040 ------- 0 0.0 5.0 35 53
+ 1.82044 3 5 tcp 1040 ------- 0 0.0 5.0 35 53
- 1.82044 3 5 tcp 1040 ------- 0 0.0 5.0 35 53
r 1.8266 3 5 tcp 1040 ------- 0 0.0 5.0 35 53
+ 1.8266 5 3 ack 40 ------- 0 5.0 0.0 21 71
- 1.8266 5 3 ack 40 ------- 0 5.0 0.0 21 71
r 1.82876 5 3 ack 40 ------- 0 5.0 0.0 21 71
+ 1.82876 3 2 ack 40 ------- 0 5.0 0.0 21 71
- 1.82876 3 2 ack 40 ------- 0 5.0 0.0 21 71
r 1.83456 3 2 ack 40 ------- 0 5.0 0.0 21 71
+ 1.83456 2 0 ack 40 ------- 0 5.0 0.0 21 71
- 1.83456 2 0 ack 40 ------- 0 5.0 0.0 21 71
- 1.83624 2 3 tcp 1040 ------- 0 0.0 5.0 39 59
r 1.83672 2 0 ack 40 ------- 0 5.0 0.0 21 71
r 1.84124 2 3 tcp 1040 ------- 0 0.0 5.0 37 56
+ 1.84124 3 5 tcp 1040 ------- 0 0.0 5.0 37 56
- 1.84124 3 5 tcp 1040 ------- 0 0.0 5.0 37 56
r 1.8474 3 5 tcp 1040 ------- 0 0.0 5.0 37 56
+ 1.8474 5 3 ack 40 ------- 0 5.0 0.0 21 72
- 1.8474 5 3 ack 40 ------- 0 5.0 0.0 21 72
r 1.84956 5 3 ack 40 ------- 0 5.0 0.0 21 72
+ 1.84956 3 2 ack 40 ------- 0 5.0 0.0 21 72
- 1.84956 3 2 ack 40 ------- 0 5.0 0.0 21 72
r 1.85536 3 2 ack 40 ------- 0 5.0 0.0 21 72
+ 1.85536 2 0 ack 40 ------- 0 5.0 0.0 21 72
- 1.85536 2 0 ack 40 ------- 0 5.0 0.0 21 72
- 1.85704 2 3 tcp 1040 ------- 0 0.0 5.0 40 61
r 1.85752 2 0 ack 40 ------- 0 5.0 0.0 21 72
r 1.86204 2 3 tcp 1040 ------- 0 0.0 5.0 39 59
+ 1.86204 3 5 tcp 1040 ------- 0 0.0 5.0 39 59
- 1.86204 3 5 tcp 1040 ------- 0 0.0 5.0 39 59
r 1.8682 3 5 tcp 1040 ------- 0 0.0 5.0 39 59
+ 1.8682 5 3 ack 40 ------- 0 5.0 0.0 21 73
- 1.8682 5 3 ack 40 ------- 0 5.0 0.0 21 73
r 1.87036 5 3 ack 40 ------- 0 5.0 0.0 21 73
+ 1.87036 3 2 ack 40 ------- 0 5.0 0.0 21 73
- 1.87036 3 2 ack 40 ------- 0 5.0 0.0 21 73
r 1.87616 3 2 ack 40 ------- 0 5.0 0.0 21 73
+ 1.87616 2 0 ack 40 ------- 0 5.0 0.0 21 73
- 1.87616 2 0 ack 40 ------- 0 5.0 0.0 21 73
- 1.87784 2 3 tcp 1040 ------- 0 0.0 5.0 41 63
r 1.87832 2 0 ack 40 ------- 0 5.0 0.0 21 73
r 1.88284 2 3 tcp 1040 ------- 0 0.0 5.0 40 61
+ 1.88284 3 5 tcp 1040 ------- 0 0.0 5.0 40 61
- 1.88284 3 5 tcp 1040 ------- 0 0.0 5.0 40 61
r 1.889 3 5 tcp 1040 ------- 0 0.0 5.0 40 61
+ 1.889 5 3 ack 40 ------- 0 5.0 0.0 21 74
- 1.889 5 3 ack 40 ------- 0 5.0 0.0 21 74
r 1.89116 5 3 ack 40 ------- 0 5.0 0.0 21 74
+ 1.89116 3 2 ack 40 ------- 0 5.0 0.0 21 74
- 1.89116 3 2 ack 40 ------- 0 5.0 0.0 21 74
r 1.89696 3 2 ack 40 ------- 0 5.0 0.0 21 74
+ 1.89696 2 0 ack 40 ------- 0 5.0 0.0 21 74
- 1.89696 2 0 ack 40 ------- 0 5.0 0.0 21 74
- 1.89864 2 3 tcp 1040 ---A--- 0 0.0 5.0 22 67
r 1.89912 2 0 ack 40 ------- 0 5.0 0.0 21 74
r 1.90364 2 3 tcp 1040 ------- 0 0.0 5.0 41 63
+ 1.90364 3 5 tcp 1040 ------- 0 0.0 5.0 41 63
- 1.90364 3 5 tcp 1040 ------- 0 0.0 5.0 41 63
r 1.9098 3 5 tcp 1040 ------- 0 0.0 5.0 41 63
+ 1.9098 5 3 ack 40 ------- 0 5.0 0.0 21 75
- 1.9098 5 3 ack 40 ------- 0 5.0 0.0 21 75
r 1.91196 5 3 ack 40 ------- 0 5.0 0.0 21 75
+ 1.91196 3 2 ack 40 ------- 0 5.0 0.0 21 75
- 1.91196 3 2 ack 40 ------- 0 5.0 0.0 21 75
r 1.91776 3 2 ack 40 ------- 0 5.0 0.0 21 75
+ 1.91776 2 0 ack 40 ------- 0 5.0 0.0 21 75
- 1.91776 2 0 ack 40 ------- 0 5.0 0.0 21 75
r 1.91992 2 0 ack 40 ------- 0 5.0 0.0 21 75
r 1.92444 2 3 tcp 1040 ---A--- 0 0.0 5.0 22 67
+ 1.92444 3 5 tcp 1040 ---A--- 0 0.0 5.0 22 67
- 1.92444 3 5 tcp 1040 ---A--- 0 0.0 5.0 22 67
r 1.9306 3 5 tcp 1040 ---A--- 0 0.0 5.0 22 67
+ 1.9306 5 3 ack 40 ------- 0 5.0 0.0 23 76
- 1.9306 5 3 ack 40 ------- 0 5.0 0.0 23 76
r 1.93276 5 3 ack 40 ------- 0 5.0 0.0 23 76
+ 1.93276 3 2 ack 40 ------- 0 5.0 0.0 23 76
- 1.93276 3 2 ack 40 ------- 0 5.0 0.0 23 76
r 1.93856 3 2 ack 40 ------- 0 5.0 0.0 23 76
+ 1.93856 2 0 ack 40 ------- 0 5.0 0.0 23 76
- 1.93856 2 0 ack 40 ------- 0 5.0 0.0 23 76
r 1.94072 2 0 ack 40 ------- 0 5.0 0.0 23 76
+ 1.94072 0 2 tcp 1040 ------- 0 0.0 5.0 24 77
- 1.94072 0 2 tcp 1040 ------- 0 0.0 5.0 24 77
+ 1.94072 0 2 tcp 1040 ------- 0 0.0 5.0 25 78