V -t * -v 1.0a5 -a 0
A -t * -n 1 -p 0 -o 0x7fffffff -c 30 -a 1
A -t * -h 1 -m 1073741823 -s 0
c -t * -i 1 -n Blue
c -t * -i 2 -n Red
n -t * -a 4 -s 4 -S UP -v circle -c black -i black
n -t * -a 0 -s 0 -S UP -v circle -c black -i black
n -t * -a 5 -s 5 -S UP -v circle -c black -i black
n -t * -a 1 -s 1 -S UP -v circle -c black -i black
n -t * -a 2 -s 2 -S UP -v circle -c black -i black
n -t * -a 3 -s 3 -S UP -v circle -c black -i black
l -t * -s 0 -d 1 -S UP -r 300000 -D 0.01 -c black -o right-up
l -t * -s 0 -d 2 -S UP -r 300000 -D 0.01 -c black -o right-down
l -t * -s 2 -d 3 -S UP -r 300000 -D 0.01 -c black -o right
l -t * -s 1 -d 4 -S UP -r 300000 -D 0.01 -c black -o right
l -t * -s 3 -d 5 -S UP -r 500000 -D 0.01 -c black -o right-up
l -t * -s 4 -d 5 -S UP -r 500000 -D 0.01 -c black -o right-down
+ -t 0.000169788487334637 -s 0 -d 1 -p rtProtoDV -e 6 -c 0 -i 0 -a 0 -x {0.2 1.1 -1 ------- null}
- -t 0.000169788487334637 -s 0 -d 1 -p rtProtoDV -e 6 -c 0 -i 0 -a 0 -x {0.2 1.1 -1 ------- null}
h -t 0.000169788487334637 -s 0 -d 1 -p rtProtoDV -e 6 -c 0 -i 0 -a 0 -x {0.2 1.1 -1 ------- null}
+ -t 0.000169788487334637 -s 0 -d 2 -p rtProtoDV -e 6 -c 0 -i 1 -a 0 -x {0.2 2.1 -1 ------- null}
- -t 0.000169788487334637 -s 0 -d 2 -p rtProtoDV -e 6 -c 0 -i 1 -a 0 -x {0.2 2.1 -1 ------- null}
h -t 0.000169788487334637 -s 0 -d 2 -p rtProtoDV -e 6 -c 0 -i 1 -a 0 -x {0.2 2.1 -1 ------- null}
+ -t 0.00710233021858257 -s 2 -d 0 -p rtProtoDV -e 6 -c 0 -i 2 -a 0 -x {2.1 0.2 -1 ------- null}
- -t 0.00710233021858257 -s 2 -d 0 -p rtProtoDV -e 6 -c 0 -i 2 -a 0 -x {2.1 0.2 -1 ------- null}
h -t 0.00710233021858257 -s 2 -d 0 -p rtProtoDV -e 6 -c 0 -i 2 -a 0 -x {2.1 0.2 -1 ------- null}
+ -t 0.00710233021858257 -s 2 -d 3 -p rtProtoDV -e 6 -c 0 -i 3 -a 0 -x {2.1 3.1 -1 ------- null}
- -t 0.00710233021858257 -s 2 -d 3 -p rtProtoDV -e 6 -c 0 -i 3 -a 0 -x {2.1 3.1 -1 ------- null}
h -t 0.00710233021858257 -s 2 -d 3 -p rtProtoDV -e 6 -c 0 -i 3 -a 0 -x {2.1 3.1 -1 ------- null}
r -t 0.0103297884873346 -s 0 -d 1 -p rtProtoDV -e 6 -c 0 -i 0 -a 0 -x {0.2 1.1 -1 ------- null}
+ -t 0.0103297884873346 -s 1 -d 0 -p rtProtoDV -e 6 -c 0 -i 4 -a 0 -x {1.1 0.2 -1 ------- null}
- -t 0.0103297884873346 -s 1 -d 0 -p rtProtoDV -e 6 -c 0 -i 4 -a 0 -x {1.1 0.2 -1 ------- null}
h -t 0.0103297884873346 -s 1 -d 0 -p rtProtoDV -e 6 -c 0 -i 4 -a 0 -x {1.1 0.2 -1 ------- null}
+ -t 0.0103297884873346 -s 1 -d 4 -p rtProtoDV -e 6 -c 0 -i 5 -a 0 -x {1.1 4.2 -1 ------- null}
- -t 0.0103297884873346 -s 1 -d 4 -p rtProtoDV -e 6 -c 0 -i 5 -a 0 -x {1.1 4.2 -1 ------- null}
h -t 0.0103297884873346 -s 1 -d 4 -p rtProtoDV -e 6 -c 0 -i 5 -a 0 -x {1.1 4.2 -1 ------- null}
r -t 0.0103297884873346 -s 0 -d 2 -p rtProtoDV -e 6 -c 0 -i 1 -a 0 -x {0.2 2.1 -1 ------- null}
+ -t 0.0103297884873346 -s 2 -d 0 -p rtProtoDV -e 6 -c 0 -i 6 -a 0 -x {2.1 0.2 -1 ------- null}
- -t 0.0103297884873346 -s 2 -d 0 -p rtProtoDV -e 6 -c 0 -i 6 -a 0 -x {2.1 0.2 -1 ------- null}
h -t 0.0103297884873346 -s 2 -d 0 -p rtProtoDV -e 6 -c 0 -i 6 -a 0 -x {2.1 0.2 -1 ------- null}
+ -t 0.0103297884873346 -s 2 -d 3 -p rtProtoDV -e 6 -c 0 -i 7 -a 0 -x {2.1 3.1 -1 ------- null}
- -t 0.0103297884873346 -s 2 -d 3 -p rtProtoDV -e 6 -c 0 -i 7 -a 0 -x {2.1 3.1 -1 ------- null}
h -t 0.0103297884873346 -s 2 -d 3 -p rtProtoDV -e 6 -c 0 -i 7 -a 0 -x {2.1 3.1 -1 ------- null}
r -t 0.0172623302185826 -s 2 -d 0 -p rtProtoDV -e 6 -c 0 -i 2 -a 0 -x {2.1 0.2 -1 ------- null}
+ -t 0.0172623302185826 -s 0 -d 1 -p rtProtoDV -e 6 -c 0 -i 8 -a 0 -x {0.2 1.1 -1 ------- null}
- -t 0.0172623302185826 -s 0 -d 1 -p rtProtoDV -e 6 -c 0 -i 8 -a 0 -x {0.2 1.1 -1 ------- null}
h -t 0.0172623302185826 -s 0 -d 1 -p rtProtoDV -e 6 -c 0 -i 8 -a 0 -x {0.2 1.1 -1 ------- null}
+ -t 0.0172623302185826 -s 0 -d 2 -p rtProtoDV -e 6 -c 0 -i 9 -a 0 -x {0.2 2.1 -1 ------- null}
- -t 0.0172623302185826 -s 0 -d 2 -p rtProtoDV -e 6 -c 0 -i 9 -a 0 -x {0.2 2.1 -1 ------- null}
h -t 0.0172623302185826 -s 0 -d 2 -p rtProtoDV -e 6 -c 0 -i 9 -a 0 -x {0.2 2.1 -1 ------- null}
r -t 0.0172623302185826 -s 2 -d 3 -p rtProtoDV -e 6 -c 0 -i 3 -a 0 -x {2.1 3.1 -1 ------- null}
+ -t 0.0172623302185826 -s 3 -d 2 -p rtProtoDV -e 6 -c 0 -i 10 -a 0 -x {3.1 2.1 -1 ------- null}
- -t 0.0172623302185826 -s 3 -d 2 -p rtProtoDV -e 6 -c 0 -i 10 -a 0 -x {3.1 2.1 -1 ------- null}
h -t 0.0172623302185826 -s 3 -d 2 -p rtProtoDV -e 6 -c 0 -i 10 -a 0 -x {3.1 2.1 -1 ------- null}
+ -t 0.0172623302185826 -s 3 -d 5 -p rtProtoDV -e 6 -c 0 -i 11 -a 0 -x {3.1 5.1 -1 ------- null}
- -t 0.0172623302185826 -s 3 -d 5 -p rtProtoDV -e 6 -c 0 -i 11 -a 0 -x {3.1 5.1 -1 ------- null}
h -t 0.0172623302185826 -s 3 -d 5 -p rtProtoDV -e 6 -c 0 -i 11 -a 0 -x {3.1 5.1 -1 ------- null}
r -t 0.0204897884873346 -s 1 -d 0 -p rtProtoDV -e 6 -c 0 -i 4 -a 0 -x {1.1 0.2 -1 ------- null}
+ -t 0.0204897884873346 -s 0 -d 1 -p rtProtoDV -e 6 -c 0 -i 12 -a 0 -x {0.2 1.1 -1 ------- null}
- -t 0.0204897884873346 -s 0 -d 1 -p rtProtoDV -e 6 -c 0 -i 12 -a 0 -x {0.2 1.1 -1 ------- null}
h -t 0.0204897884873346 -s 0 -d 1 -p rtProtoDV -e 6 -c 0 -i 12 -a 0 -x {0.2 1.1 -1 ------- null}
+ -t 0.0204897884873346 -s 0 -d 2 -p rtProtoDV -e 6 -c 0 -i 13 -a 0 -x {0.2 2.1 -1 ------- null}
- -t 0.0204897884873346 -s 0 -d 2 -p rtProtoDV -e 6 -c 0 -i 13 -a 0 -x {0.2 2.1 -1 ------- null}
h -t 0.0204897884873346 -s 0 -d 2 -p rtProtoDV -e 6 -c 0 -i 13 -a 0 -x {0.2 2.1 -1 ------- null}
r -t 0.0204897884873346 -s 1 -d 4 -p rtProtoDV -e 6 -c 0 -i 5 -a 0 -x {1.1 4.2 -1 ------- null}
+ -t 0.0204897884873346 -s 4 -d 1 -p rtProtoDV -e 6 -c 0 -i 14 -a 0 -x {4.2 1.1 -1 ------- null}
- -t 0.0204897884873346 -s 4 -d 1 -p rtProtoDV -e 6 -c 0 -i 14 -a 0 -x {4.2 1.1 -1 ------- null}
h -t 0.0204897884873346 -s 4 -d 1 -p rtProtoDV -e 6 -c 0 -i 14 -a 0 -x {4.2 1.1 -1 ------- null}
+ -t 0.0204897884873346 -s 4 -d 5 -p rtProtoDV -e 6 -c 0 -i 15 -a 0 -x {4.2 5.1 -1 ------- null}
- -t 0.0204897884873346 -s 4 -d 5 -p rtProtoDV -e 6 -c 0 -i 15 -a 0 -x {4.2 5.1 -1 ------- null}
h -t 0.0204897884873346 -s 4 -d 5 -p rtProtoDV -e 6 -c 0 -i 15 -a 0 -x {4.2 5.1 -1 ------- null}
r -t 0.0204897884873346 -s 2 -d 0 -p rtProtoDV -e 6 -c 0 -i 6 -a 0 -x {2.1 0.2 -1 ------- null}
r -t 0.0204897884873346 -s 2 -d 3 -p rtProtoDV -e 6 -c 0 -i 7 -a 0 -x {2.1 3.1 -1 ------- null}
+ -t 0.0204897884873346 -s 3 -d 2 -p rtProtoDV -e 6 -c 0 -i 16 -a 0 -x {3.1 2.1 -1 ------- null}
- -t 0.0204897884873346 -s 3 -d 2 -p rtProtoDV -e 6 -c 0 -i 16 -a 0 -x {3.1 2.1 -1 ------- null}
h -t 0.0204897884873346 -s 3 -d 2 -p rtProtoDV -e 6 -c 0 -i 16 -a 0 -x {3.1 2.1 -1 ------- null}
+ -t 0.0204897884873346 -s 3 -d 5 -p rtProtoDV -e 6 -c 0 -i 17 -a 0 -x {3.1 5.1 -1 ------- null}
- -t 0.0204897884873346 -s 3 -d 5 -p rtProtoDV -e 6 -c 0 -i 17 -a 0 -x {3.1 5.1 -1 ------- null}
h -t 0.0204897884873346 -s 3 -d 5 -p rtProtoDV -e 6 -c 0 -i 17 -a 0 -x {3.1 5.1 -1 ------- null}
r -t 0.0273583302185826 -s 3 -d 5 -p rtProtoDV -e 6 -c 0 -i 11 -a 0 -x {3.1 5.1 -1 ------- null}
+ -t 0.0273583302185826 -s 5 -d 3 -p rtProtoDV -e 6 -c 0 -i 18 -a 0 -x {5.1 3.1 -1 ------- null}
- -t 0.0273583302185826 -s 5 -d 3 -p rtProtoDV -e 6 -c 0 -i 18 -a 0 -x {5.1 3.1 -1 ------- null}
h -t 0.0273583302185826 -s 5 -d 3 -p rtProtoDV -e 6 -c 0 -i 18 -a 0 -x {5.1 3.1 -1 ------- null}
+ -t 0.0273583302185826 -s 5 -d 4 -p rtProtoDV -e 6 -c 0 -i 19 -a 0 -x {5.1 4.2 -1 ------- null}
- -t 0.0273583302185826 -s 5 -d 4 -p rtProtoDV -e 6 -c 0 -i 19 -a 0 -x {5.1 4.2 -1 ------- null}
h -t 0.0273583302185826 -s 5 -d 4 -p rtProtoDV -e 6 -c 0 -i 19 -a 0 -x {5.1 4.2 -1 ------- null}
r -t 0.0274223302185826 -s 0 -d 1 -p rtProtoDV -e 6 -c 0 -i 8 -a 0 -x {0.2 1.1 -1 ------- null}
+ -t 0.0274223302185826 -s 1 -d 0 -p rtProtoDV -e 6 -c 0 -i 20 -a 0 -x {1.1 0.2 -1 ------- null}
- -t 0.0274223302185826 -s 1 -d 0 -p rtProtoDV -e 6 -c 0 -i 20 -a 0 -x {1.1 0.2 -1 ------- null}
h -t 0.0274223302185826 -s 1 -d 0 -p rtProtoDV -e 6 -c 0 -i 20 -a 0 -x {1.1 0.2 -1 ------- null}
+ -t 0.0274223302185826 -s 1 -d 4 -p rtProtoDV -e 6 -c 0 -i 21 -a 0 -x {1.1 4.2 -1 ------- null}
- -t 0.0274223302185826 -s 1 -d 4 -p rtProtoDV -e 6 -c 0 -i 21 -a 0 -x {1.1 4.2 -1 ------- null}
h -t 0.0274223302185826 -s 1 -d 4 -p rtProtoDV -e 6 -c 0 -i 21 -a 0 -x {1.1 4.2 -1 ------- null}
r -t 0.0274223302185826 -s 0 -d 2 -p rtProtoDV -e 6 -c 0 -i 9 -a 0 -x {0.2 2.1 -1 ------- null}
r -t 0.0274223302185826 -s 3 -d 2 -p rtProtoDV -e 6 -c 0 -i 10 -a 0 -x {3.1 2.1 -1 ------- null}
+ -t 0.0274223302185826 -s 2 -d 0 -p rtProtoDV -e 6 -c 0 -i 22 -a 0 -x {2.1 0.2 -1 ------- null}
- -t 0.0274223302185826 -s 2 -d 0 -p rtProtoDV -e 6 -c 0 -i 22 -a 0 -x {2.1 0.2 -1 ------- null}
h -t 0.0274223302185826 -s 2 -d 0 -p rtProtoDV -e 6 -c 0 -i 22 -a 0 -x {2.1 0.2 -1 ------- null}
+ -t 0.0274223302185826 -s 2 -d 3 -p rtProtoDV -e 6 -c 0 -i 23 -a 0 -x {2.1 3.1 -1 ------- null}
- -t 0.0274223302185826 -s 2 -d 3 -p rtProtoDV -e 6 -c 0 -i 23 -a 0 -x {2.1 3.1 -1 ------- null}
h -t 0.0274223302185826 -s 2 -d 3 -p rtProtoDV -e 6 -c 0 -i 23 -a 0 -x {2.1 3.1 -1 ------- null}
r -t 0.0305857884873346 -s 4 -d 5 -p rtProtoDV -e 6 -c 0 -i 15 -a 0 -x {4.2 5.1 -1 ------- null}
+ -t 0.0305857884873346 -s 5 -d 3 -p rtProtoDV -e 6 -c 0 -i 24 -a 0 -x {5.1 3.1 -1 ------- null}
- -t 0.0305857884873346 -s 5 -d 3 -p rtProtoDV -e 6 -c 0 -i 24 -a 0 -x {5.1 3.1 -1 ------- null}
h -t 0.0305857884873346 -s 5 -d 3 -p rtProtoDV -e 6 -c 0 -i 24 -a 0 -x {5.1 3.1 -1 ------- null}
+ -t 0.0305857884873346 -s 5 -d 4 -p rtProtoDV -e 6 -c 0 -i 25 -a 0 -x {5.1 4.2 -1 ------- null}
- -t 0.0305857884873346 -s 5 -d 4 -p rtProtoDV -e 6 -c 0 -i 25 -a 0 -x {5.1 4.2 -1 ------- null}
h -t 0.0305857884873346 -s 5 -d 4 -p rtProtoDV -e 6 -c 0 -i 25 -a 0 -x {5.1 4.2 -1 ------- null}
r -t 0.0305857884873346 -s 3 -d 5 -p rtProtoDV -e 6 -c 0 -i 17 -a 0 -x {3.1 5.1 -1 ------- null}
r -t 0.0306497884873346 -s 0 -d 1 -p rtProtoDV -e 6 -c 0 -i 12 -a 0 -x {0.2 1.1 -1 ------- null}
r -t 0.0306497884873346 -s 0 -d 2 -p rtProtoDV -e 6 -c 0 -i 13 -a 0 -x {0.2 2.1 -1 ------- null}
+ -t 0.0306497884873346 -s 2 -d 0 -p rtProtoDV -e 6 -c 0 -i 26 -a 0 -x {2.1 0.2 -1 ------- null}
- -t 0.0306497884873346 -s 2 -d 0 -p rtProtoDV -e 6 -c 0 -i 26 -a 0 -x {2.1 0.2 -1 ------- null}
h -t 0.0306497884873346 -s 2 -d 0 -p rtProtoDV -e 6 -c 0 -i 26 -a 0 -x {2.1 0.2 -1 ------- null}
+ -t 0.0306497884873346 -s 2 -d 3 -p rtProtoDV -e 6 -c 0 -i 27 -a 0 -x {2.1 3.1 -1 ------- null}
- -t 0.0306497884873346 -s 2 -d 3 -p rtProtoDV -e 6 -c 0 -i 27 -a 0 -x {2.1 3.1 -1 ------- null}
h -t 0.0306497884873346 -s 2 -d 3 -p rtProtoDV -e 6 -c 0 -i 27 -a 0 -x {2.1 3.1 -1 ------- null}
r -t 0.0306497884873346 -s 4 -d 1 -p rtProtoDV -e 6 -c 0 -i 14 -a 0 -x {4.2 1.1 -1 ------- null}
+ -t 0.0306497884873346 -s 1 -d 0 -p rtProtoDV -e 6 -c 0 -i 28 -a 0 -x {1.1 0.2 -1 ------- null}
- -t 0.0306497884873346 -s 1 -d 0 -p rtProtoDV -e 6 -c 0 -i 28 -a 0 -x {1.1 0.2 -1 ------- null}
h -t 0.0306497884873346 -s 1 -d 0 -p rtProtoDV -e 6 -c 0 -i 28 -a 0 -x {1.1 0.2 -1 ------- null}
+ -t 0.0306497884873346 -s 1 -d 4 -p rtProtoDV -e 6 -c 0 -i 29 -a 0 -x {1.1 4.2 -1 ------- null}
- -t 0.0306497884873346 -s 1 -d 4 -p rtProtoDV -e 6 -c 0 -i 29 -a 0 -x {1.1 4.2 -1 ------- null}
h -t 0.0306497884873346 -s 1 -d 4 -p rtProtoDV -e 6 -c 0 -i 29 -a 0 -x {1.1 4.2 -1 ------- null}
r -t 0.0306497884873346 -s 3 -d 2 -p rtProtoDV -e 6 -c 0 -i 16 -a 0 -x {3.1 2.1 -1 ------- null}
r -t 0.0374543302185826 -s 5 -d 3 -p rtProtoDV -e 6 -c 0 -i 18 -a 0 -x {5.1 3.1 -1 ------- null}
+ -t 0.0374543302185826 -s 3 -d 2 -p rtProtoDV -e 6 -c 0 -i 30 -a 0 -x {3.1 2.1 -1 ------- null}
- -t 0.0374543302185826 -s 3 -d 2 -p rtProtoDV -e 6 -c 0 -i 30 -a 0 -x {3.1 2.1 -1 ------- null}
h -t 0.0374543302185826 -s 3 -d 2 -p rtProtoDV -e 6 -c 0 -i 30 -a 0 -x {3.1 2.1 -1 ------- null}
+ -t 0.0374543302185826 -s 3 -d 5 -p rtProtoDV -e 6 -c 0 -i 31 -a 0 -x {3.1 5.1 -1 ------- null}
- -t 0.0374543302185826 -s 3 -d 5 -p rtProtoDV -e 6 -c 0 -i 31 -a 0 -x {3.1 5.1 -1 ------- null}
h -t 0.0374543302185826 -s 3 -d 5 -p rtProtoDV -e 6 -c 0 -i 31 -a 0 -x {3.1 5.1 -1 ------- null}
r -t 0.0374543302185826 -s 5 -d 4 -p rtProtoDV -e 6 -c 0 -i 19 -a 0 -x {5.1 4.2 -1 ------- null}
+ -t 0.0374543302185826 -s 4 -d 1 -p rtProtoDV -e 6 -c 0 -i 32 -a 0 -x {4.2 1.1 -1 ------- null}
- -t 0.0374543302185826 -s 4 -d 1 -p rtProtoDV -e 6 -c 0 -i 32 -a 0 -x {4.2 1.1 -1 ------- null}
h -t 0.0374543302185826 -s 4 -d 1 -p rtProtoDV -e 6 -c 0 -i 32 -a 0 -x {4.2 1.1 -1 ------- null}
+ -t 0.0374543302185826 -s 4 -d 5 -p rtProtoDV -e 6 -c 0 -i 33 -a 0 -x {4.2 5.1 -1 ------- null}
- -t 0.0374543302185826 -s 4 -d 5 -p rtProtoDV -e 6 -c 0 -i 33 -a 0 -x {4.2 5.1 -1 ------- null}
h -t 0.0374543302185826 -s 4 -d 5 -p rtProtoDV -e 6 -c 0 -i 33 -a 0 -x {4.2 5.1 -1 ------- null}
r -t 0.0375823302185826 -s 1 -d 0 -p rtProtoDV -e 6 -c 0 -i 20 -a 0 -x {1.1 0.2 -1 ------- null}
r -t 0.0375823302185826 -s 1 -d 4 -p rtProtoDV -e 6 -c 0 -i 21 -a 0 -x {1.1 4.2 -1 ------- null}
r -t 0.0375823302185826 -s 2 -d 0 -p rtProtoDV -e 6 -c 0 -i 22 -a 0 -x {2.1 0.2 -1 ------- null}
+ -t 0.0375823302185826 -s 0 -d 1 -p rtProtoDV -e 6 -c 0 -i 34 -a 0 -x {0.2 1.1 -1 ------- null}
- -t 0.0375823302185826 -s 0 -d 1 -p rtProtoDV -e 6 -c 0 -i 34 -a 0 -x {0.2 1.1 -1 ------- null}
h -t 0.0375823302185826 -s 0 -d 1 -p rtProtoDV -e 6 -c 0 -i 34 -a 0 -x {0.2 1.1 -1 ------- null}
+ -t 0.0375823302185826 -s 0 -d 2 -p rtProtoDV -e 6 -c 0 -i 35 -a 0 -x {0.2 2.1 -1 ------- null}
- -t 0.0375823302185826 -s 0 -d 2 -p rtProtoDV -e 6 -c 0 -i 35 -a 0 -x {0.2 2.1 -1 ------- null}
h -t 0.0375823302185826 -s 0 -d 2 -p rtProtoDV -e 6 -c 0 -i 35 -a 0 -x {0.2 2.1 -1 ------- null}
r -t 0.0375823302185826 -s 2 -d 3 -p rtProtoDV -e 6 -c 0 -i 23 -a 0 -x {2.1 3.1 -1 ------- null}
r -t 0.0406817884873346 -s 5 -d 3 -p rtProtoDV -e 6 -c 0 -i 24 -a 0 -x {5.1 3.1 -1 ------- null}
r -t 0.0406817884873346 -s 5 -d 4 -p rtProtoDV -e 6 -c 0 -i 25 -a 0 -x {5.1 4.2 -1 ------- null}
r -t 0.0408097884873346 -s 2 -d 0 -p rtProtoDV -e 6 -c 0 -i 26 -a 0 -x {2.1 0.2 -1 ------- null}
r -t 0.0408097884873346 -s 2 -d 3 -p rtProtoDV -e 6 -c 0 -i 27 -a 0 -x {2.1 3.1 -1 ------- null}
r -t 0.0408097884873346 -s 1 -d 0 -p rtProtoDV -e 6 -c 0 -i 28 -a 0 -x {1.1 0.2 -1 ------- null}
r -t 0.0408097884873346 -s 1 -d 4 -p rtProtoDV -e 6 -c 0 -i 29 -a 0 -x {1.1 4.2 -1 ------- null}
+ -t 0.04406133552271 -s 3 -d 2 -p rtProtoDV -e 6 -c 0 -i 36 -a 0 -x {3.1 2.1 -1 ------- null}
- -t 0.04406133552271 -s 3 -d 2 -p rtProtoDV -e 6 -c 0 -i 36 -a 0 -x {3.1 2.1 -1 ------- null}
h -t 0.04406133552271 -s 3 -d 2 -p rtProtoDV -e 6 -c 0 -i 36 -a 0 -x {3.1 2.1 -1 ------- null}
+ -t 0.04406133552271 -s 3 -d 5 -p rtProtoDV -e 6 -c 0 -i 37 -a 0 -x {3.1 5.1 -1 ------- null}
- -t 0.04406133552271 -s 3 -d 5 -p rtProtoDV -e 6 -c 0 -i 37 -a 0 -x {3.1 5.1 -1 ------- null}
h -t 0.04406133552271 -s 3 -d 5 -p rtProtoDV -e 6 -c 0 -i 37 -a 0 -x {3.1 5.1 -1 ------- null}
r -t 0.0475503302185826 -s 3 -d 5 -p rtProtoDV -e 6 -c 0 -i 31 -a 0 -x {3.1 5.1 -1 ------- null}
r -t 0.0475503302185826 -s 4 -d 5 -p rtProtoDV -e 6 -c 0 -i 33 -a 0 -x {4.2 5.1 -1 ------- null}
r -t 0.0476143302185826 -s 3 -d 2 -p rtProtoDV -e 6 -c 0 -i 30 -a 0 -x {3.1 2.1 -1 ------- null}
r -t 0.0476143302185826 -s 4 -d 1 -p rtProtoDV -e 6 -c 0 -i 32 -a 0 -x {4.2 1.1 -1 ------- null}
r -t 0.0477423302185826 -s 0 -d 1 -p rtProtoDV -e 6 -c 0 -i 34 -a 0 -x {0.2 1.1 -1 ------- null}
r -t 0.0477423302185826 -s 0 -d 2 -p rtProtoDV -e 6 -c 0 -i 35 -a 0 -x {0.2 2.1 -1 ------- null}
r -t 0.05415733552271 -s 3 -d 5 -p rtProtoDV -e 6 -c 0 -i 37 -a 0 -x {3.1 5.1 -1 ------- null}
r -t 0.05422133552271 -s 3 -d 2 -p rtProtoDV -e 6 -c 0 -i 36 -a 0 -x {3.1 2.1 -1 ------- null}
+ -t 0.1 -s 0 -d 1 -p tcp -e 40 -c 1 -i 38 -a 1 -x {0.0 4.0 0 ------- null}
- -t 0.1 -s 0 -d 1 -p tcp -e 40 -c 1 -i 38 -a 1 -x {0.0 4.0 0 ------- null}
h -t 0.1 -s 0 -d 1 -p tcp -e 40 -c 1 -i 38 -a 1 -x {0.0 4.0 -1 ------- null}
r -t 0.111066666666667 -s 0 -d 1 -p tcp -e 40 -c 1 -i 38 -a 1 -x {0.0 4.0 0 ------- null}
+ -t 0.111066666666667 -s 1 -d 4 -p tcp -e 40 -c 1 -i 38 -a 1 -x {0.0 4.0 0 ------- null}
- -t 0.111066666666667 -s 1 -d 4 -p tcp -e 40 -c 1 -i 38 -a 1 -x {0.0 4.0 0 ------- null}
h -t 0.111066666666667 -s 1 -d 4 -p tcp -e 40 -c 1 -i 38 -a 1 -x {0.0 4.0 -1 ------- null}
r -t 0.122133333333333 -s 1 -d 4 -p tcp -e 40 -c 1 -i 38 -a 1 -x {0.0 4.0 0 ------- null}
+ -t 0.122133333333333 -s 4 -d 1 -p ack -e 40 -c 1 -i 39 -a 1 -x {4.0 0.0 0 ------- null}
- -t 0.122133333333333 -s 4 -d 1 -p ack -e 40 -c 1 -i 39 -a 1 -x {4.0 0.0 0 ------- null}
h -t 0.122133333333333 -s 4 -d 1 -p ack -e 40 -c 1 -i 39 -a 1 -x {4.0 0.0 -1 ------- null}
r -t 0.1332 -s 4 -d 1 -p ack -e 40 -c 1 -i 39 -a 1 -x {4.0 0.0 0 ------- null}
+ -t 0.1332 -s 1 -d 0 -p ack -e 40 -c 1 -i 39 -a 1 -x {4.0 0.0 0 ------- null}
- -t 0.1332 -s 1 -d 0 -p ack -e 40 -c 1 -i 39 -a 1 -x {4.0 0.0 0 ------- null}
h -t 0.1332 -s 1 -d 0 -p ack -e 40 -c 1 -i 39 -a 1 -x {4.0 0.0 -1 ------- null}
r -t 0.144266666666667 -s 1 -d 0 -p ack -e 40 -c 1 -i 39 -a 1 -x {4.0 0.0 0 ------- null}
+ -t 0.144266666666667 -s 0 -d 1 -p tcp -e 1040 -c 1 -i 40 -a 1 -x {0.0 4.0 1 ------- null}
- -t 0.144266666666667 -s 0 -d 1 -p tcp -e 1040 -c 1 -i 40 -a 1 -x {0.0 4.0 1 ------- null}
h -t 0.144266666666667 -s 0 -d 1 -p tcp -e 1040 -c 1 -i 40 -a 1 -x {0.0 4.0 -1 ------- null}
+ -t 0.144266666666667 -s 0 -d 1 -p tcp -e 1040 -c 1 -i 41 -a 1 -x {0.0 4.0 2 ------- null}
- -t 0.172 -s 0 -d 1 -p tcp -e 1040 -c 1 -i 41 -a 1 -x {0.0 4.0 2 ------- null}
h -t 0.172 -s 0 -d 1 -p tcp -e 1040 -c 1 -i 41 -a 1 -x {0.0 4.0 -1 ------- null}
r -t 0.182 -s 0 -d 1 -p tcp -e 1040 -c 1 -i 40 -a 1 -x {0.0 4.0 1 ------- null}
+ -t 0.182 -s 1 -d 4 -p tcp -e 1040 -c 1 -i 40 -a 1 -x {0.0 4.0 1 ------- null}
- -t 0.182 -s 1 -d 4 -p tcp -e 1040 -c 1 -i 40 -a 1 -x {0.0 4.0 1 ------- null}
h -t 0.182 -s 1 -d 4 -p tcp -e 1040 -c 1 -i 40 -a 1 -x {0.0 4.0 -1 ------- null}
r -t 0.209733333333333 -s 0 -d 1 -p tcp -e 1040 -c 1 -i 41 -a 1 -x {0.0 4.0 2 ------- null}
+ -t 0.209733333333333 -s 1 -d 4 -p tcp -e 1040 -c 1 -i 41 -a 1 -x {0.0 4.0 2 ------- null}
- -t 0.209733333333333 -s 1 -d 4 -p tcp -e 1040 -c 1 -i 41 -a 1 -x {0.0 4.0 2 ------- null}
h -t 0.209733333333333 -s 1 -d 4 -p tcp -e 1040 -c 1 -i 41 -a 1 -x {0.0 4.0 -1 ------- null}
r -t 0.219733333333333 -s 1 -d 4 -p tcp -e 1040 -c 1 -i 40 -a 1 -x {0.0 4.0 1 ------- null}
+ -t 0.219733333333333 -s 4 -d 1 -p ack -e 40 -c 1 -i 42 -a 1 -x {4.0 0.0 1 ------- null}
- -t 0.219733333333333 -s 4 -d 1 -p ack -e 40 -c 1 -i 42 -a 1 -x {4.0 0.0 1 ------- null}
h -t 0.219733333333333 -s 4 -d 1 -p ack -e 40 -c 1 -i 42 -a 1 -x {4.0 0.0 -1 ------- null}
+ -t 0.22058669092161 -s 4 -d 1 -p rtProtoDV -e 6 -c 0 -i 43 -a 0 -x {4.2 1.1 -1 ------- null}
+ -t 0.22058669092161 -s 4 -d 5 -p rtProtoDV -e 6 -c 0 -i 44 -a 0 -x {4.2 5.1 -1 ------- null}
- -t 0.22058669092161 -s 4 -d 5 -p rtProtoDV -e 6 -c 0 -i 44 -a 0 -x {4.2 5.1 -1 ------- null}
h -t 0.22058669092161 -s 4 -d 5 -p rtProtoDV -e 6 -c 0 -i 44 -a 0 -x {4.2 5.1 -1 ------- null}
- -t 0.2208 -s 4 -d 1 -p rtProtoDV -e 6 -c 0 -i 43 -a 0 -x {4.2 1.1 -1 ------- null}
h -t 0.2208 -s 4 -d 1 -p rtProtoDV -e 6 -c 0 -i 43 -a 0 -x {4.2 1.1 -1 ------- null}
r -t 0.23068269092161 -s 4 -d 5 -p rtProtoDV -e 6 -c 0 -i 44 -a 0 -x {4.2 5.1 -1 ------- null}
r -t 0.2308 -s 4 -d 1 -p ack -e 40 -c 1 -i 42 -a 1 -x {4.0 0.0 1 ------- null}
+ -t 0.2308 -s 1 -d 0 -p ack -e 40 -c 1 -i 42 -a 1 -x {4.0 0.0 1 ------- null}
- -t 0.2308 -s 1 -d 0 -p ack -e 40 -c 1 -i 42 -a 1 -x {4.0 0.0 1 ------- null}
h -t 0.2308 -s 1 -d 0 -p ack -e 40 -c 1 -i 42 -a 1 -x {4.0 0.0 -1 ------- null}
r -t 0.23096 -s 4 -d 1 -p rtProtoDV -e 6 -c 0 -i 43 -a 0 -x {4.2 1.1 -1 ------- null}
r -t 0.241866666666667 -s 1 -d 0 -p ack -e 40 -c 1 -i 42 -a 1 -x {4.0 0.0 1 ------- null}
+ -t 0.241866666666667 -s 0 -d 1 -p tcp -e 1040 -c 1 -i 45 -a 1 -x {0.0 4.0 3 ------- null}
- -t 0.241866666666667 -s 0 -d 1 -p tcp -e 1040 -c 1 -i 45 -a 1 -x {0.0 4.0 3 ------- null}
h -t 0.241866666666667 -s 0 -d 1 -p tcp -e 1040 -c 1 -i 45 -a 1 -x {0.0 4.0 -1 ------- null}
+ -t 0.241866666666667 -s 0 -d 1 -p tcp -e 1040 -c 1 -i 46 -a 1 -x {0.0 4.0 4 ------- null}
r -t 0.247466666666667 -s 1 -d 4 -p tcp -e 1040 -c 1 -i 41 -a 1 -x {0.0 4.0 2 ------- null}
+ -t 0.247466666666667 -s 4 -d 1 -p ack -e 40 -c 1 -i 47 -a 1 -x {4.0 0.0 2 ------- null}
- -t 0.247466666666667 -s 4 -d 1 -p ack -e 40 -c 1 -i 47 -a 1 -x {4.0 0.0 2 ------- null}
h -t 0.247466666666667 -s 4 -d 1 -p ack -e 40 -c 1 -i 47 -a 1 -x {4.0 0.0 -1 ------- null}
r -t 0.258533333333333 -s 4 -d 1 -p ack -e 40 -c 1 -i 47 -a 1 -x {4.0 0.0 2 ------- null}
+ -t 0.258533333333333 -s 1 -d 0 -p ack -e 40 -c 1 -i 47 -a 1 -x {4.0 0.0 2 ------- null}
- -t 0.258533333333333 -s 1 -d 0 -p ack -e 40 -c 1 -i 47 -a 1 -x {4.0 0.0 2 ------- null}
h -t 0.258533333333333 -s 1 -d 0 -p ack -e 40 -c 1 -i 47 -a 1 -x {4.0 0.0 -1 ------- null}
r -t 0.2696 -s 1 -d 0 -p ack -e 40 -c 1 -i 47 -a 1 -x {4.0 0.0 2 ------- null}
+ -t 0.2696 -s 0 -d 1 -p tcp -e 1040 -c 1 -i 48 -a 1 -x {0.0 4.0 5 ------- null}
+ -t 0.2696 -s 0 -d 1 -p tcp -e 1040 -c 1 -i 49 -a 1 -x {0.0 4.0 6 ------- null}
- -t 0.2696 -s 0 -d 1 -p tcp -e 1040 -c 1 -i 46 -a 1 -x {0.0 4.0 4 ------- null}
h -t 0.2696 -s 0 -d 1 -p tcp -e 1040 -c 1 -i 46 -a 1 -x {0.0 4.0 -1 ------- null}
+ -t 0.277940357931862 -s 1 -d 0 -p rtProtoDV -e 6 -c 0 -i 50 -a 0 -x {1.1 0.2 -1 ------- null}
- -t 0.277940357931862 -s 1 -d 0 -p rtProtoDV -e 6 -c 0 -i 50 -a 0 -x {1.1 0.2 -1 ------- null}
h -t 0.277940357931862 -s 1 -d 0 -p rtProtoDV -e 6 -c 0 -i 50 -a 0 -x {1.1 0.2 -1 ------- null}
+ -t 0.277940357931862 -s 1 -d 4 -p rtProtoDV -e 6 -c 0 -i 51 -a 0 -x {1.1 4.2 -1 ------- null}
- -t 0.277940357931862 -s 1 -d 4 -p rtProtoDV -e 6 -c 0 -i 51 -a 0 -x {1.1 4.2 -1 ------- null}
h -t 0.277940357931862 -s 1 -d 4 -p rtProtoDV -e 6 -c 0 -i 51 -a 0 -x {1.1 4.2 -1 ------- null}
r -t 0.2796 -s 0 -d 1 -p tcp -e 1040 -c 1 -i 45 -a 1 -x {0.0 4.0 3 ------- null}
+ -t 0.2796 -s 1 -d 4 -p tcp -e 1040 -c 1 -i 45 -a 1 -x {0.0 4.0 3 ------- null}
- -t 0.2796 -s 1 -d 4 -p tcp -e 1040 -c 1 -i 45 -a 1 -x {0.0 4.0 3 ------- null}
h -t 0.2796 -s 1 -d 4 -p tcp -e 1040 -c 1 -i 45 -a 1 -x {0.0 4.0 -1 ------- null}
r -t 0.288100357931862 -s 1 -d 0 -p rtProtoDV -e 6 -c 0 -i 50 -a 0 -x {1.1 0.2 -1 ------- null}
r -t 0.288100357931862 -s 1 -d 4 -p rtProtoDV -e 6 -c 0 -i 51 -a 0 -x {1.1 4.2 -1 ------- null}
- -t 0.297333333333333 -s 0 -d 1 -p tcp -e 1040 -c 1 -i 48 -a 1 -x {0.0 4.0 5 ------- null}
h -t 0.297333333333333 -s 0 -d 1 -p tcp -e 1040 -c 1 -i 48 -a 1 -x {0.0 4.0 -1 ------- null}
r -t 0.307333333333333 -s 0 -d 1 -p tcp -e 1040 -c 1 -i 46 -a 1 -x {0.0 4.0 4 ------- null}
+ -t 0.307333333333333 -s 1 -d 4 -p tcp -e 1040 -c 1 -i 46 -a 1 -x {0.0 4.0 4 ------- null}
- -t 0.307333333333333 -s 1 -d 4 -p tcp -e 1040 -c 1 -i 46 -a 1 -x {0.0 4.0 4 ------- null}
h -t 0.307333333333333 -s 1 -d 4 -p tcp -e 1040 -c 1 -i 46 -a 1 -x {0.0 4.0 -1 ------- null}
r -t 0.317333333333333 -s 1 -d 4 -p tcp -e 1040 -c 1 -i 45 -a 1 -x {0.0 4.0 3 ------- null}
+ -t 0.317333333333333 -s 4 -d 1 -p ack -e 40 -c 1 -i 52 -a 1 -x {4.0 0.0 3 ------- null}
- -t 0.317333333333333 -s 4 -d 1 -p ack -e 40 -c 1 -i 52 -a 1 -x {4.0 0.0 3 ------- null}
h -t 0.317333333333333 -s 4 -d 1 -p ack -e 40 -c 1 -i 52 -a 1 -x {4.0 0.0 -1 ------- null}
- -t 0.325066666666667 -s 0 -d 1 -p tcp -e 1040 -c 1 -i 49 -a 1 -x {0.0 4.0 6 ------- null}
h -t 0.325066666666667 -s 0 -d 1 -p tcp -e 1040 -c 1 -i 49 -a 1 -x {0.0 4.0 -1 ------- null}
r -t 0.3284 -s 4 -d 1 -p ack -e 40 -c 1 -i 52 -a 1 -x {4.0 0.0 3 ------- null}
+ -t 0.3284 -s 1 -d 0 -p ack -e 40 -c 1 -i 52 -a 1 -x {4.0 0.0 3 ------- null}
- -t 0.3284 -s 1 -d 0 -p ack -e 40 -c 1 -i 52 -a 1 -x {4.0 0.0 3 ------- null}
h -t 0.3284 -s 1 -d 0 -p ack -e 40 -c 1 -i 52 -a 1 -x {4.0 0.0 -1 ------- null}
r -t 0.335066666666667 -s 0 -d 1 -p tcp -e 1040 -c 1 -i 48 -a 1 -x {0.0 4.0 5 ------- null}
+ -t 0.335066666666667 -s 1 -d 4 -p tcp -e 1040 -c 1 -i 48 -a 1 -x {0.0 4.0 5 ------- null}
- -t 0.335066666666667 -s 1 -d 4 -p tcp -e 1040 -c 1 -i 48 -a 1 -x {0.0 4.0 5 ------- null}
h -t 0.335066666666667 -s 1 -d 4 -p tcp -e 1040 -c 1 -i 48 -a 1 -x {0.0 4.0 -1 ------- null}
r -t 0.339466666666667 -s 1 -d 0 -p ack -e 40 -c 1 -i 52 -a 1 -x {4.0 0.0 3 ------- null}
+ -t 0.339466666666667 -s 0 -d 1 -p tcp -e 1040 -c 1 -i 53 -a 1 -x {0.0 4.0 7 ------- null}
+ -t 0.339466666666667 -s 0 -d 1 -p tcp -e 1040 -c 1 -i 54 -a 1 -x {0.0 4.0 8 ------- null}
r -t 0.345066666666667 -s 1 -d 4 -p tcp -e 1040 -c 1 -i 46 -a 1 -x {0.0 4.0 4 ------- null}
+ -t 0.345066666666667 -s 4 -d 1 -p ack -e 40 -c 1 -i 55 -a 1 -x {4.0 0.0 4 ------- null}
- -t 0.345066666666667 -s 4 -d 1 -p ack -e 40 -c 1 -i 55 -a 1 -x {4.0 0.0 4 ------- null}
h -t 0.345066666666667 -s 4 -d 1 -p ack -e 40 -c 1 -i 55 -a 1 -x {4.0 0.0 -1 ------- null}
- -t 0.3528 -s 0 -d 1 -p tcp -e 1040 -c 1 -i 53 -a 1 -x {0.0 4.0 7 ------- null}
h -t 0.3528 -s 0 -d 1 -p tcp -e 1040 -c 1 -i 53 -a 1 -x {0.0 4.0 -1 ------- null}
r -t 0.356133333333333 -s 4 -d 1 -p ack -e 40 -c 1 -i 55 -a 1 -x {4.0 0.0 4 ------- null}
+ -t 0.356133333333333 -s 1 -d 0 -p ack -e 40 -c 1 -i 55 -a 1 -x {4.0 0.0 4 ------- null}
- -t 0.356133333333333 -s 1 -d 0 -p ack -e 40 -c 1 -i 55 -a 1 -x {4.0 0.0 4 ------- null}
h -t 0.356133333333333 -s 1 -d 0 -p ack -e 40 -c 1 -i 55 -a 1 -x {4.0 0.0 -1 ------- null}
r -t 0.3628 -s 0 -d 1 -p tcp -e 1040 -c 1 -i 49 -a 1 -x {0.0 4.0 6 ------- null}
+ -t 0.3628 -s 1 -d 4 -p tcp -e 1040 -c 1 -i 49 -a 1 -x {0.0 4.0 6 ------- null}
- -t 0.3628 -s 1 -d 4 -p tcp -e 1040 -c 1 -i 49 -a 1 -x {0.0 4.0 6 ------- null}
h -t 0.3628 -s 1 -d 4 -p tcp -e 1040 -c 1 -i 49 -a 1 -x {0.0 4.0 -1 ------- null}
r -t 0.3672 -s 1 -d 0 -p ack -e 40 -c 1 -i 55 -a 1 -x {4.0 0.0 4 ------- null}
+ -t 0.3672 -s 0 -d 1 -p tcp -e 1040 -c 1 -i 56 -a 1 -x {0.0 4.0 9 ------- null}
+ -t 0.3672 -s 0 -d 1 -p tcp -e 1040 -c 1 -i 57 -a 1 -x {0.0 4.0 10 ------- null}
r -t 0.3728 -s 1 -d 4 -p tcp -e 1040 -c 1 -i 48 -a 1 -x {0.0 4.0 5 ------- null}
+ -t 0.3728 -s 4 -d 1 -p ack -e 40 -c 1 -i 58 -a 1 -x {4.0 0.0 5 ------- null}
- -t 0.3728 -s 4 -d 1 -p ack -e 40 -c 1 -i 58 -a 1 -x {4.0 0.0 5 ------- null}
h -t 0.3728 -s 4 -d 1 -p ack -e 40 -c 1 -i 58 -a 1 -x {4.0 0.0 -1 ------- null}
- -t 0.380533333333333 -s 0 -d 1 -p tcp -e 1040 -c 1 -i 54 -a 1 -x {0.0 4.0 8 ------- null}
h -t 0.380533333333333 -s 0 -d 1 -p tcp -e 1040 -c 1 -i 54 -a 1 -x {0.0 4.0 -1 ------- null}
r -t 0.383866666666667 -s 4 -d 1 -p ack -e 40 -c 1 -i 58 -a 1 -x {4.0 0.0 5 ------- null}
+ -t 0.383866666666667 -s 1 -d 0 -p ack -e 40 -c 1 -i 58 -a 1 -x {4.0 0.0 5 ------- null}
- -t 0.383866666666667 -s 1 -d 0 -p ack -e 40 -c 1 -i 58 -a 1 -x {4.0 0.0 5 ------- null}
h -t 0.383866666666667 -s 1 -d 0 -p ack -e 40 -c 1 -i 58 -a 1 -x {4.0 0.0 -1 ------- null}
r -t 0.390533333333333 -s 0 -d 1 -p tcp -e 1040 -c 1 -i 53 -a 1 -x {0.0 4.0 7 ------- null}
+ -t 0.390533333333333 -s 1 -d 4 -p tcp -e 1040 -c 1 -i 53 -a 1 -x {0.0 4.0 7 ------- null}
- -t 0.390533333333333 -s 1 -d 4 -p tcp -e 1040 -c 1 -i 53 -a 1 -x {0.0 4.0 7 ------- null}
h -t 0.390533333333333 -s 1 -d 4 -p tcp -e 1040 -c 1 -i 53 -a 1 -x {0.0 4.0 -1 ------- null}
r -t 0.394933333333333 -s 1 -d 0 -p ack -e 40 -c 1 -i 58 -a 1 -x {4.0 0.0 5 ------- null}
+ -t 0.394933333333333 -s 0 -d 1 -p tcp -e 1040 -c 1 -i 59 -a 1 -x {0.0 4.0 11 ------- null}
+ -t 0.394933333333333 -s 0 -d 1 -p tcp -e 1040 -c 1 -i 60 -a 1 -x {0.0 4.0 12 ------- null}
+ -t 0.399577726796073 -s 5 -d 3 -p rtProtoDV -e 6 -c 0 -i 61 -a 0 -x {5.1 3.1 -1 ------- null}
- -t 0.399577726796073 -s 5 -d 3 -p rtProtoDV -e 6 -c 0 -i 61 -a 0 -x {5.1 3.1 -1 ------- null}
h -t 0.399577726796073 -s 5 -d 3 -p rtProtoDV -e 6 -c 0 -i 61 -a 0 -x {5.1 3.1 -1 ------- null}
+ -t 0.399577726796073 -s 5 -d 4 -p rtProtoDV -e 6 -c 0 -i 62 -a 0 -x {5.1 4.2 -1 ------- null}
- -t 0.399577726796073 -s 5 -d 4 -p rtProtoDV -e 6 -c 0 -i 62 -a 0 -x {5.1 4.2 -1 ------- null}
h -t 0.399577726796073 -s 5 -d 4 -p rtProtoDV -e 6 -c 0 -i 62 -a 0 -x {5.1 4.2 -1 ------- null}
r -t 0.400533333333333 -s 1 -d 4 -p tcp -e 1040 -c 1 -i 49 -a 1 -x {0.0 4.0 6 ------- null}
+ -t 0.400533333333333 -s 4 -d 1 -p ack -e 40 -c 1 -i 63 -a 1 -x {4.0 0.0 6 ------- null}
- -t 0.400533333333333 -s 4 -d 1 -p ack -e 40 -c 1 -i 63 -a 1 -x {4.0 0.0 6 ------- null}
h -t 0.400533333333333 -s 4 -d 1 -p ack -e 40 -c 1 -i 63 -a 1 -x {4.0 0.0 -1 ------- null}
- -t 0.408266666666667 -s 0 -d 1 -p tcp -e 1040 -c 1 -i 56 -a 1 -x {0.0 4.0 9 ------- null}
h -t 0.408266666666667 -s 0 -d 1 -p tcp -e 1040 -c 1 -i 56 -a 1 -x {0.0 4.0 -1 ------- null}
r -t 0.409673726796073 -s 5 -d 3 -p rtProtoDV -e 6 -c 0 -i 61 -a 0 -x {5.1 3.1 -1 ------- null}
r -t 0.409673726796073 -s 5 -d 4 -p rtProtoDV -e 6 -c 0 -i 62 -a 0 -x {5.1 4.2 -1 ------- null}
r -t 0.4116 -s 4 -d 1 -p ack -e 40 -c 1 -i 63 -a 1 -x {4.0 0.0 6 ------- null}
+ -t 0.4116 -s 1 -d 0 -p ack -e 40 -c 1 -i 63 -a 1 -x {4.0 0.0 6 ------- null}
- -t 0.4116 -s 1 -d 0 -p ack -e 40 -c 1 -i 63 -a 1 -x {4.0 0.0 6 ------- null}
h -t 0.4116 -s 1 -d 0 -p ack -e 40 -c 1 -i 63 -a 1 -x {4.0 0.0 -1 ------- null}
r -t 0.418266666666667 -s 0 -d 1 -p tcp -e 1040 -c 1 -i 54 -a 1 -x {0.0 4.0 8 ------- null}
+ -t 0.418266666666667 -s 1 -d 4 -p tcp -e 1040 -c 1 -i 54 -a 1 -x {0.0 4.0 8 ------- null}
- -t 0.418266666666667 -s 1 -d 4 -p tcp -e 1040 -c 1 -i 54 -a 1 -x {0.0 4.0 8 ------- null}
h -t 0.418266666666667 -s 1 -d 4 -p tcp -e 1040 -c 1 -i 54 -a 1 -x {0.0 4.0 -1 ------- null}
r -t 0.422666666666667 -s 1 -d 0 -p ack -e 40 -c 1 -i 63 -a 1 -x {4.0 0.0 6 ------- null}
+ -t 0.422666666666667 -s 0 -d 1 -p tcp -e 1040 -c 1 -i 64 -a 1 -x {0.0 4.0 13 ------- null}
+ -t 0.422666666666667 -s 0 -d 1 -p tcp -e 1040 -c 1 -i 65 -a 1 -x {0.0 4.0 14 ------- null}
r -t 0.428266666666667 -s 1 -d 4 -p tcp -e 1040 -c 1 -i 53 -a 1 -x {0.0 4.0 7 ------- null}
+ -t 0.428266666666667 -s 4 -d 1 -p ack -e 40 -c 1 -i 66 -a 1 -x {4.0 0.0 7 ------- null}
- -t 0.428266666666667 -s 4 -d 1 -p ack -e 40 -c 1 -i 66 -a 1 -x {4.0 0.0 7 ------- null}
h -t 0.428266666666667 -s 4 -d 1 -p ack -e 40 -c 1 -i 66 -a 1 -x {4.0 0.0 -1 ------- null}
- -t 0.436 -s 0 -d 1 -p tcp -e 1040 -c 1 -i 57 -a 1 -x {0.0 4.0 10 ------- null}